DEBUG:qiskit_nature.drivers.second_quantization.pyscfd.pyscfdriver:PySCF processing messages log:
System: uname_result(system='Linux', node='DESKTOP-GR7HJ9S', release='5.15.90.1-microsoft-standard-WSL2', version='#1 SMP Fri Jan 27 02:56:13 UTC 2023', machine='x86_64')  Threads 4
Python 3.10.6 (main, Mar 10 2023, 10:55:28) [GCC 11.3.0]
numpy 1.24.3  scipy 1.10.1
Date: Mon May 22 18:31:38 2023
PySCF version 2.2.1
PySCF path  /home/meghashree/.local/lib/python3.10/site-packages/pyscf

[CONFIG] conf_file None
[INPUT] verbose = 4
[INPUT] num. atoms = 2
[INPUT] num. electrons = 2
[INPUT] charge = 0
[INPUT] spin (= nelec alpha-beta = 2S) = 0
[INPUT] symmetry False subgroup None
[INPUT] Mole.unit = Angstrom
[INPUT] Symbol           X                Y                Z      unit          X                Y                Z       unit  Magmom
[INPUT]  1 H      0.000000000000   0.000000000000   0.000000000000 AA    0.000000000000   0.000000000000   0.000000000000 Bohr   0.0
[INPUT]  2 H      0.000000000000   0.000000000000   0.735000000000 AA    0.000000000000   0.000000000000   1.388948701555 Bohr   0.0

nuclear repulsion = 0.71996899444898
number of shells = 2
number of NR pGTOs = 6
number of NR cGTOs = 2
basis = sto3g
ecp = {}
CPU time:         5.20

DEBUG:h5py._conv:Creating converter from 5 to 3
INFO:qiskit_nature.drivers.second_quantization.pyscfd.pyscfdriver:PySCF kernel() converged: True, e(hf): -1.116998996754004
INFO:qiskit_nature.drivers.second_quantization.pyscfd.pyscfdriver:HF Electronic dipole moment: [-0.        -0.        -1.3889487]
INFO:qiskit_nature.drivers.second_quantization.pyscfd.pyscfdriver:Nuclear dipole moment: [0.        0.        1.3889487]
INFO:qiskit_nature.drivers.second_quantization.pyscfd.pyscfdriver:Total dipole moment: [0. 0. 0.]
DEBUG:qiskit_nature.drivers.second_quantization.pyscfd.pyscfdriver:PySCF processing messages log:
System: uname_result(system='Linux', node='DESKTOP-GR7HJ9S', release='5.15.90.1-microsoft-standard-WSL2', version='#1 SMP Fri Jan 27 02:56:13 UTC 2023', machine='x86_64')  Threads 4
Python 3.10.6 (main, Mar 10 2023, 10:55:28) [GCC 11.3.0]
numpy 1.24.3  scipy 1.10.1
Date: Mon May 22 18:33:09 2023
PySCF version 2.2.1
PySCF path  /home/meghashree/.local/lib/python3.10/site-packages/pyscf

[CONFIG] conf_file None
[INPUT] verbose = 4
[INPUT] num. atoms = 2
[INPUT] num. electrons = 2
[INPUT] charge = 0
[INPUT] spin (= nelec alpha-beta = 2S) = 0
[INPUT] symmetry False subgroup None
[INPUT] Mole.unit = Angstrom
[INPUT] Symbol           X                Y                Z      unit          X                Y                Z       unit  Magmom
[INPUT]  1 H      0.000000000000   0.000000000000   0.000000000000 AA    0.000000000000   0.000000000000   0.000000000000 Bohr   0.0
[INPUT]  2 H      0.000000000000   0.000000000000   0.735000000000 AA    0.000000000000   0.000000000000   1.388948701555 Bohr   0.0

nuclear repulsion = 0.71996899444898
number of shells = 2
number of NR pGTOs = 6
number of NR cGTOs = 2
basis = sto3g
ecp = {}
CPU time:         4.40

DEBUG:h5py._conv:Creating converter from 5 to 3
INFO:qiskit_nature.drivers.second_quantization.pyscfd.pyscfdriver:PySCF kernel() converged: True, e(hf): -1.116998996754004
INFO:qiskit_nature.drivers.second_quantization.pyscfd.pyscfdriver:HF Electronic dipole moment: [-0.        -0.        -1.3889487]
INFO:qiskit_nature.drivers.second_quantization.pyscfd.pyscfdriver:Nuclear dipole moment: [0.        0.        1.3889487]
INFO:qiskit_nature.drivers.second_quantization.pyscfd.pyscfdriver:Total dipole moment: [0. 0. 0.]
INFO:qiskit.compiler.assembler:Total Assembly Time - 0.24390 (ms)
INFO:qiskit.compiler.assembler:Total Assembly Time - 0.12827 (ms)
INFO:qiskit.compiler.assembler:Total Assembly Time - 0.21911 (ms)
INFO:qiskit.compiler.assembler:Total Assembly Time - 0.14949 (ms)
INFO:qiskit.compiler.assembler:Total Assembly Time - 0.13375 (ms)
INFO:qiskit.compiler.assembler:Total Assembly Time - 0.11754 (ms)
INFO:qiskit.compiler.assembler:Total Assembly Time - 0.11182 (ms)
INFO:qiskit.compiler.assembler:Total Assembly Time - 0.10729 (ms)
INFO:qiskit.compiler.assembler:Total Assembly Time - 0.10395 (ms)
INFO:qiskit.compiler.assembler:Total Assembly Time - 0.10872 (ms)
INFO:qiskit.compiler.assembler:Total Assembly Time - 0.10729 (ms)
INFO:qiskit.compiler.assembler:Total Assembly Time - 0.10991 (ms)
INFO:qiskit.compiler.assembler:Total Assembly Time - 0.11849 (ms)
INFO:qiskit.compiler.assembler:Total Assembly Time - 0.11492 (ms)
INFO:qiskit.compiler.assembler:Total Assembly Time - 0.10419 (ms)
INFO:qiskit.utils.quantum_instance:Overwriting the number of shots in the quantum instance with the settings from the backend.
DEBUG:qiskit.utils.backend_utils:IBMQFactory/AccountProvider not loaded: 'No module named 'qiskit.providers.ibmq''
INFO:qiskit.utils.quantum_instance:
Qiskit Terra version: 0.24.0
Backend: 'statevector_simulator (AerProvider)', with following setting:
{'basis_gates': ['ccx', 'cp', 'cswap', 'csx', 'cu', 'cu1', 'cu2', 'cu3', 'cx', 'cy', 'cz', 'delay', 'diagonal', 'h', 'id', 'initialize', 'mcp', 'mcphase', 'mcr', 'mcrx', 'mcry', 'mcrz', 'mcswap', 'mcsx', 'mcu', 'mcu1', 'mcu2', 'mcu3', 'mcx', 'mcy', 'mcz', 'multiplexer', 'p', 'pauli', 'r', 'rx', 'rxx', 'ry', 'ryy', 'rz', 'rzx', 'rzz', 's', 'sdg', 'swap', 'sx', 'sxdg', 't', 'tdg', 'u', 'u1', 'u2', 'u3', 'unitary', 'x', 'y', 'z', 'kraus', 'qerror_loc', 'quantum_channel', 'roerror', 'save_amplitudes', 'save_amplitudes_sq', 'save_density_matrix', 'save_expval', 'save_probs', 'save_probs_ket', 'save_state', 'save_statevector', 'set_statevector'], 'coupling_map': None}
{'initial_layout': None, 'seed_transpiler': None, 'optimization_level': None}
RunConfig(shots=1)
{'timeout': None}
{}
{}
Measurement mitigation: None
INFO:qiskit.algorithms.minimum_eigen_solvers.vqe:
==================== Setting of VQE ============================
Algorithm: VQE
-- max_evals_grouped: 1
-- circuit_sampler: <qiskit.opflow.converters.circuit_sampler.CircuitSampler object at 0x7f886c7aa020>
-- expectation: None
-- include_custom: False
-- ansatz:      ┌───┐┌───────┐
q_0: ┤ X ├┤ Rz(0) ├
     └───┘└───────┘
q_1: ──────────────
     ┌───┐         
q_2: ┤ X ├─────────
     └───┘         
q_3: ──────────────
                   
-- optimizer: <qiskit.algorithms.optimizers.slsqp.SLSQP object at 0x7f8868eeeaa0>
-- initial_point: Random seed
-- gradient: None
-- quantum_instance: 
Qiskit Terra version: 0.24.0
Backend: 'statevector_simulator (AerProvider)', with following setting:
{'basis_gates': ['ccx', 'cp', 'cswap', 'csx', 'cu', 'cu1', 'cu2', 'cu3', 'cx', 'cy', 'cz', 'delay', 'diagonal', 'h', 'id', 'initialize', 'mcp', 'mcphase', 'mcr', 'mcrx', 'mcry', 'mcrz', 'mcswap', 'mcsx', 'mcu', 'mcu1', 'mcu2', 'mcu3', 'mcx', 'mcy', 'mcz', 'multiplexer', 'p', 'pauli', 'r', 'rx', 'rxx', 'ry', 'ryy', 'rz', 'rzx', 'rzz', 's', 'sdg', 'swap', 'sx', 'sxdg', 't', 'tdg', 'u', 'u1', 'u2', 'u3', 'unitary', 'x', 'y', 'z', 'kraus', 'qerror_loc', 'quantum_channel', 'roerror', 'save_amplitudes', 'save_amplitudes_sq', 'save_density_matrix', 'save_expval', 'save_probs', 'save_probs_ket', 'save_state', 'save_statevector', 'set_statevector'], 'coupling_map': None}
{'initial_layout': None, 'seed_transpiler': None, 'optimization_level': None}
RunConfig(shots=1)
{'timeout': None}
{}
{}
Measurement mitigation: None
-- eval_time: None
-- eval_count: 0
-- callback: None
===============================================================
     ┌───┐┌───────┐
q_0: ┤ X ├┤ Rz(0) ├
     └───┘└───────┘
q_1: ──────────────
     ┌───┐         
q_2: ┤ X ├─────────
     └───┘         
q_3: ──────────────
                   ===============================================================
Optimizer: SLSQP
-- method: slsqp
-- bounds_support_level: 2
-- gradient_support_level: 2
-- initial_point_support_level: 3
-- options: {'maxiter': 100, 'disp': False, 'ftol': 1e-06, 'eps': 1.4901161193847656e-08}
-- max_evals_grouped: 1
-- kwargs: {'tol': None}
===============================================================

DEBUG:stevedore._cache:reading /home/meghashree/.cache/python-entrypoints/a59b7cc4e69c0e5eb3cdca2220324bcc776096b42e1b8bedd04e003567ce29b2
DEBUG:stevedore._cache:writing to /home/meghashree/.cache/python-entrypoints/a59b7cc4e69c0e5eb3cdca2220324bcc776096b42e1b8bedd04e003567ce29b2
DEBUG:stevedore.extension:found extension EntryPoint(name='basic', value='qiskit.transpiler.preset_passmanagers.builtin_plugins:BasicSwapPassManager', group='qiskit.transpiler.routing')
DEBUG:stevedore.extension:found extension EntryPoint(name='lookahead', value='qiskit.transpiler.preset_passmanagers.builtin_plugins:LookaheadSwapPassManager', group='qiskit.transpiler.routing')
DEBUG:stevedore.extension:found extension EntryPoint(name='none', value='qiskit.transpiler.preset_passmanagers.builtin_plugins:NoneRoutingPassManager', group='qiskit.transpiler.routing')
DEBUG:stevedore.extension:found extension EntryPoint(name='sabre', value='qiskit.transpiler.preset_passmanagers.builtin_plugins:SabreSwapPassManager', group='qiskit.transpiler.routing')
DEBUG:stevedore.extension:found extension EntryPoint(name='stochastic', value='qiskit.transpiler.preset_passmanagers.builtin_plugins:StochasticSwapPassManager', group='qiskit.transpiler.routing')
DEBUG:stevedore.extension:found extension EntryPoint(name='clifford.ag', value='qiskit.transpiler.passes.synthesis.high_level_synthesis:AGSynthesisClifford', group='qiskit.synthesis')
DEBUG:stevedore.extension:found extension EntryPoint(name='clifford.bm', value='qiskit.transpiler.passes.synthesis.high_level_synthesis:BMSynthesisClifford', group='qiskit.synthesis')
DEBUG:stevedore.extension:found extension EntryPoint(name='clifford.default', value='qiskit.transpiler.passes.synthesis.high_level_synthesis:DefaultSynthesisClifford', group='qiskit.synthesis')
DEBUG:stevedore.extension:found extension EntryPoint(name='clifford.greedy', value='qiskit.transpiler.passes.synthesis.high_level_synthesis:GreedySynthesisClifford', group='qiskit.synthesis')
DEBUG:stevedore.extension:found extension EntryPoint(name='clifford.layers', value='qiskit.transpiler.passes.synthesis.high_level_synthesis:LayerSynthesisClifford', group='qiskit.synthesis')
DEBUG:stevedore.extension:found extension EntryPoint(name='clifford.lnn', value='qiskit.transpiler.passes.synthesis.high_level_synthesis:LayerLnnSynthesisClifford', group='qiskit.synthesis')
DEBUG:stevedore.extension:found extension EntryPoint(name='linear_function.default', value='qiskit.transpiler.passes.synthesis.high_level_synthesis:DefaultSynthesisLinearFunction', group='qiskit.synthesis')
DEBUG:stevedore.extension:found extension EntryPoint(name='linear_function.kms', value='qiskit.transpiler.passes.synthesis.high_level_synthesis:KMSSynthesisLinearFunction', group='qiskit.synthesis')
DEBUG:stevedore.extension:found extension EntryPoint(name='linear_function.pmh', value='qiskit.transpiler.passes.synthesis.high_level_synthesis:PMHSynthesisLinearFunction', group='qiskit.synthesis')
DEBUG:stevedore.extension:found extension EntryPoint(name='permutation.acg', value='qiskit.transpiler.passes.synthesis.high_level_synthesis:ACGSynthesisPermutation', group='qiskit.synthesis')
DEBUG:stevedore.extension:found extension EntryPoint(name='permutation.basic', value='qiskit.transpiler.passes.synthesis.high_level_synthesis:BasicSynthesisPermutation', group='qiskit.synthesis')
DEBUG:stevedore.extension:found extension EntryPoint(name='permutation.default', value='qiskit.transpiler.passes.synthesis.high_level_synthesis:BasicSynthesisPermutation', group='qiskit.synthesis')
DEBUG:stevedore.extension:found extension EntryPoint(name='permutation.kms', value='qiskit.transpiler.passes.synthesis.high_level_synthesis:KMSSynthesisPermutation', group='qiskit.synthesis')
INFO:qiskit.transpiler.runningpassmanager:Pass: ContainsInstruction - 0.02265 (ms)
INFO:qiskit.transpiler.runningpassmanager:Pass: UnitarySynthesis - 0.01097 (ms)
INFO:qiskit.transpiler.runningpassmanager:Pass: HighLevelSynthesis - 0.09513 (ms)
INFO:qiskit.transpiler.runningpassmanager:Pass: UnrollCustomDefinitions - 0.63086 (ms)
INFO:qiskit.transpiler.passes.basis.basis_translator:Begin BasisTranslator from source basis {('x', 1), ('rz', 1)} to target basis {'rzz', 'unitary', 'mcy', 'roerror', 'mcu3', 'rzx', 'mcswap', 'sdg', 'mcrz', 'save_amplitudes', 'mcx', 's', 't', 'cy', 'kraus', 'swap', 'save_expval', 'mcp', 'quantum_channel', 'cx', 'mcr', 'initialize', 'mcu', 'cu1', 'csx', 'save_probs', 'tdg', 'u2', 'save_statevector', 'delay', 'sxdg', 'u3', 'rxx', 'mcry', 'multiplexer', 'save_density_matrix', 'save_state', 'rx', 'u1', 'sx', 'cz', 'mcu1', 'ry', 'mcz', 'rz', 'x', 'cu', 'mcu2', 'p', 'barrier', 'ryy', 'h', 'mcsx', 'u', 'cp', 'save_amplitudes_sq', 'cu2', 'cswap', 'snapshot', 'diagonal', 'set_statevector', 'pauli', 'qerror_loc', 'mcphase', 'y', 'save_probs_ket', 'z', 'id', 'reset', 'ccx', 'measure', 'cu3', 'mcrx', 'r'}.
DEBUG:qiskit.transpiler.passes.basis.basis_translator:Begining basis search from {('x', 1), ('rz', 1)} to {'rzz', 'unitary', 'mcy', 'roerror', 'mcu3', 'rzx', 'mcswap', 'sdg', 'mcrz', 'save_amplitudes', 'mcx', 's', 't', 'cy', 'kraus', 'swap', 'save_expval', 'mcp', 'quantum_channel', 'cx', 'mcr', 'initialize', 'mcu', 'cu1', 'csx', 'save_probs', 'tdg', 'u2', 'save_statevector', 'delay', 'sxdg', 'u3', 'rxx', 'mcry', 'multiplexer', 'save_density_matrix', 'save_state', 'rx', 'u1', 'sx', 'cz', 'mcu1', 'ry', 'mcz', 'rz', 'x', 'cu', 'mcu2', 'p', 'barrier', 'ryy', 'h', 'mcsx', 'u', 'cp', 'save_amplitudes_sq', 'cu2', 'cswap', 'snapshot', 'diagonal', 'set_statevector', 'pauli', 'qerror_loc', 'mcphase', 'y', 'save_probs_ket', 'z', 'id', 'reset', 'ccx', 'measure', 'cu3', 'mcrx', 'r'}.
INFO:qiskit.transpiler.passes.basis.basis_translator:Basis translation path search completed in 0.001s.
INFO:qiskit.transpiler.passes.basis.basis_translator:Basis translation paths composed in 0.001s.
INFO:qiskit.transpiler.passes.basis.basis_translator:Basis translation instructions replaced in 0.000s.
INFO:qiskit.transpiler.runningpassmanager:Pass: BasisTranslator - 8.33488 (ms)
INFO:qiskit.transpiler.runningpassmanager:Pass: RemoveResetInZeroState - 0.06032 (ms)
INFO:qiskit.transpiler.runningpassmanager:Pass: Depth - 0.69976 (ms)
INFO:qiskit.transpiler.runningpassmanager:Pass: FixedPoint - 0.04673 (ms)
INFO:qiskit.transpiler.runningpassmanager:Pass: Size - 0.11611 (ms)
INFO:qiskit.transpiler.runningpassmanager:Pass: FixedPoint - 0.04482 (ms)
INFO:qiskit.transpiler.runningpassmanager:Pass: Optimize1qGatesDecomposition - 3.86572 (ms)
INFO:qiskit.transpiler.runningpassmanager:Pass: CXCancellation - 0.10538 (ms)
INFO:qiskit.transpiler.runningpassmanager:Pass: GatesInBasis - 0.11182 (ms)
INFO:qiskit.transpiler.runningpassmanager:Pass: Depth - 0.11826 (ms)
INFO:qiskit.transpiler.runningpassmanager:Pass: FixedPoint - 0.03695 (ms)
INFO:qiskit.transpiler.runningpassmanager:Pass: Size - 0.10633 (ms)
INFO:qiskit.transpiler.runningpassmanager:Pass: FixedPoint - 0.03886 (ms)
INFO:qiskit.transpiler.runningpassmanager:Pass: ContainsInstruction - 0.11635 (ms)
INFO:qiskit.compiler.transpiler:Total Transpile Time - 699.32461 (ms)
DEBUG:qiskit.utils.quantum_instance:==== Before transpiler ====
DEBUG:qiskit.utils.quantum_instance:Submitting 1 circuits.
============================================================================
0-th circuit: 4 qubits, 0 classical bits and 3 operations with depth 2
op_counts: OrderedDict([('x', 2), ('rz', 1)])
============================================================================

DEBUG:qiskit.utils.quantum_instance:====  After transpiler ====
DEBUG:qiskit.utils.quantum_instance:Submitting 1 circuits.
============================================================================
0-th circuit: 4 qubits, 0 classical bits and 3 operations with depth 2
op_counts: OrderedDict([('x', 2), ('rz', 1)])
============================================================================

DEBUG:qiskit.opflow.converters.circuit_sampler:Parameter conversion 2.90775 (ms)
INFO:qiskit.algorithms.minimum_eigen_solvers.vqe:Energy evaluation returned [-1.83696799] - 721.91691 (ms), eval count: 1
DEBUG:qiskit.opflow.converters.circuit_sampler:Parameter conversion 0.19574 (ms)
INFO:qiskit.algorithms.minimum_eigen_solvers.vqe:Energy evaluation returned [-1.83696799] - 5.21207 (ms), eval count: 2
DEBUG:stevedore.extension:found extension EntryPoint(name='basic', value='qiskit.transpiler.preset_passmanagers.builtin_plugins:BasicSwapPassManager', group='qiskit.transpiler.routing')
DEBUG:stevedore.extension:found extension EntryPoint(name='lookahead', value='qiskit.transpiler.preset_passmanagers.builtin_plugins:LookaheadSwapPassManager', group='qiskit.transpiler.routing')
DEBUG:stevedore.extension:found extension EntryPoint(name='none', value='qiskit.transpiler.preset_passmanagers.builtin_plugins:NoneRoutingPassManager', group='qiskit.transpiler.routing')
DEBUG:stevedore.extension:found extension EntryPoint(name='sabre', value='qiskit.transpiler.preset_passmanagers.builtin_plugins:SabreSwapPassManager', group='qiskit.transpiler.routing')
DEBUG:stevedore.extension:found extension EntryPoint(name='stochastic', value='qiskit.transpiler.preset_passmanagers.builtin_plugins:StochasticSwapPassManager', group='qiskit.transpiler.routing')
DEBUG:stevedore.extension:found extension EntryPoint(name='clifford.ag', value='qiskit.transpiler.passes.synthesis.high_level_synthesis:AGSynthesisClifford', group='qiskit.synthesis')
DEBUG:stevedore.extension:found extension EntryPoint(name='clifford.bm', value='qiskit.transpiler.passes.synthesis.high_level_synthesis:BMSynthesisClifford', group='qiskit.synthesis')
DEBUG:stevedore.extension:found extension EntryPoint(name='clifford.default', value='qiskit.transpiler.passes.synthesis.high_level_synthesis:DefaultSynthesisClifford', group='qiskit.synthesis')
DEBUG:stevedore.extension:found extension EntryPoint(name='clifford.greedy', value='qiskit.transpiler.passes.synthesis.high_level_synthesis:GreedySynthesisClifford', group='qiskit.synthesis')
DEBUG:stevedore.extension:found extension EntryPoint(name='clifford.layers', value='qiskit.transpiler.passes.synthesis.high_level_synthesis:LayerSynthesisClifford', group='qiskit.synthesis')
DEBUG:stevedore.extension:found extension EntryPoint(name='clifford.lnn', value='qiskit.transpiler.passes.synthesis.high_level_synthesis:LayerLnnSynthesisClifford', group='qiskit.synthesis')
DEBUG:stevedore.extension:found extension EntryPoint(name='linear_function.default', value='qiskit.transpiler.passes.synthesis.high_level_synthesis:DefaultSynthesisLinearFunction', group='qiskit.synthesis')
DEBUG:stevedore.extension:found extension EntryPoint(name='linear_function.kms', value='qiskit.transpiler.passes.synthesis.high_level_synthesis:KMSSynthesisLinearFunction', group='qiskit.synthesis')
DEBUG:stevedore.extension:found extension EntryPoint(name='linear_function.pmh', value='qiskit.transpiler.passes.synthesis.high_level_synthesis:PMHSynthesisLinearFunction', group='qiskit.synthesis')
DEBUG:stevedore.extension:found extension EntryPoint(name='permutation.acg', value='qiskit.transpiler.passes.synthesis.high_level_synthesis:ACGSynthesisPermutation', group='qiskit.synthesis')
DEBUG:stevedore.extension:found extension EntryPoint(name='permutation.basic', value='qiskit.transpiler.passes.synthesis.high_level_synthesis:BasicSynthesisPermutation', group='qiskit.synthesis')
DEBUG:stevedore.extension:found extension EntryPoint(name='permutation.default', value='qiskit.transpiler.passes.synthesis.high_level_synthesis:BasicSynthesisPermutation', group='qiskit.synthesis')
DEBUG:stevedore.extension:found extension EntryPoint(name='permutation.kms', value='qiskit.transpiler.passes.synthesis.high_level_synthesis:KMSSynthesisPermutation', group='qiskit.synthesis')
INFO:qiskit.transpiler.runningpassmanager:Pass: ContainsInstruction - 0.01907 (ms)
INFO:qiskit.transpiler.runningpassmanager:Pass: UnitarySynthesis - 0.00691 (ms)
INFO:qiskit.transpiler.runningpassmanager:Pass: HighLevelSynthesis - 0.06819 (ms)
INFO:qiskit.transpiler.runningpassmanager:Pass: UnrollCustomDefinitions - 0.12684 (ms)
INFO:qiskit.transpiler.passes.basis.basis_translator:Begin BasisTranslator from source basis {('x', 1), ('rz', 1)} to target basis {'rzz', 'unitary', 'mcy', 'roerror', 'mcu3', 'rzx', 'mcswap', 'sdg', 'mcrz', 'save_amplitudes', 'mcx', 's', 't', 'cy', 'kraus', 'swap', 'save_expval', 'mcp', 'quantum_channel', 'cx', 'mcr', 'initialize', 'mcu', 'cu1', 'csx', 'save_probs', 'tdg', 'u2', 'save_statevector', 'delay', 'sxdg', 'u3', 'rxx', 'mcry', 'multiplexer', 'save_density_matrix', 'save_state', 'rx', 'u1', 'sx', 'cz', 'mcu1', 'ry', 'mcz', 'rz', 'x', 'cu', 'mcu2', 'p', 'barrier', 'ryy', 'h', 'mcsx', 'u', 'cp', 'save_amplitudes_sq', 'cu2', 'cswap', 'snapshot', 'diagonal', 'set_statevector', 'pauli', 'qerror_loc', 'mcphase', 'y', 'save_probs_ket', 'z', 'id', 'reset', 'ccx', 'measure', 'cu3', 'mcrx', 'r'}.
DEBUG:qiskit.transpiler.passes.basis.basis_translator:Begining basis search from {('x', 1), ('rz', 1)} to {'rzz', 'unitary', 'mcy', 'roerror', 'mcu3', 'rzx', 'mcswap', 'sdg', 'mcrz', 'save_amplitudes', 'mcx', 's', 't', 'cy', 'kraus', 'swap', 'save_expval', 'mcp', 'quantum_channel', 'cx', 'mcr', 'initialize', 'mcu', 'cu1', 'csx', 'save_probs', 'tdg', 'u2', 'save_statevector', 'delay', 'sxdg', 'u3', 'rxx', 'mcry', 'multiplexer', 'save_density_matrix', 'save_state', 'rx', 'u1', 'sx', 'cz', 'mcu1', 'ry', 'mcz', 'rz', 'x', 'cu', 'mcu2', 'p', 'barrier', 'ryy', 'h', 'mcsx', 'u', 'cp', 'save_amplitudes_sq', 'cu2', 'cswap', 'snapshot', 'diagonal', 'set_statevector', 'pauli', 'qerror_loc', 'mcphase', 'y', 'save_probs_ket', 'z', 'id', 'reset', 'ccx', 'measure', 'cu3', 'mcrx', 'r'}.
INFO:qiskit.transpiler.passes.basis.basis_translator:Basis translation path search completed in 0.001s.
INFO:qiskit.transpiler.passes.basis.basis_translator:Basis translation paths composed in 0.001s.
INFO:qiskit.transpiler.passes.basis.basis_translator:Basis translation instructions replaced in 0.000s.
INFO:qiskit.transpiler.runningpassmanager:Pass: BasisTranslator - 5.61523 (ms)
INFO:qiskit.transpiler.runningpassmanager:Pass: RemoveResetInZeroState - 0.03934 (ms)
INFO:qiskit.transpiler.runningpassmanager:Pass: Depth - 0.10037 (ms)
INFO:qiskit.transpiler.runningpassmanager:Pass: FixedPoint - 0.03219 (ms)
INFO:qiskit.transpiler.runningpassmanager:Pass: Size - 0.07629 (ms)
INFO:qiskit.transpiler.runningpassmanager:Pass: FixedPoint - 0.02360 (ms)
INFO:qiskit.transpiler.runningpassmanager:Pass: Optimize1qGatesDecomposition - 4.65989 (ms)
INFO:qiskit.transpiler.runningpassmanager:Pass: CXCancellation - 0.11706 (ms)
INFO:qiskit.transpiler.runningpassmanager:Pass: GatesInBasis - 0.07915 (ms)
INFO:qiskit.transpiler.runningpassmanager:Pass: Depth - 0.07200 (ms)
INFO:qiskit.transpiler.runningpassmanager:Pass: FixedPoint - 0.02408 (ms)
INFO:qiskit.transpiler.runningpassmanager:Pass: Size - 0.06390 (ms)
INFO:qiskit.transpiler.runningpassmanager:Pass: FixedPoint - 0.02074 (ms)
INFO:qiskit.transpiler.runningpassmanager:Pass: Optimize1qGatesDecomposition - 0.36669 (ms)
INFO:qiskit.transpiler.runningpassmanager:Pass: CXCancellation - 0.06199 (ms)
INFO:qiskit.transpiler.runningpassmanager:Pass: GatesInBasis - 0.07343 (ms)
INFO:qiskit.transpiler.runningpassmanager:Pass: Depth - 0.07272 (ms)
INFO:qiskit.transpiler.runningpassmanager:Pass: FixedPoint - 0.02384 (ms)
INFO:qiskit.transpiler.runningpassmanager:Pass: Size - 0.07415 (ms)
INFO:qiskit.transpiler.runningpassmanager:Pass: FixedPoint - 0.02193 (ms)
INFO:qiskit.transpiler.runningpassmanager:Pass: ContainsInstruction - 0.08059 (ms)
INFO:qiskit.compiler.transpiler:Total Transpile Time - 72.83258 (ms)
INFO:qiskit.algorithms.minimum_eigen_solvers.vqe:Optimization complete in 0.7354857921600342 seconds.
Found opt_params [6.06669429] in 2 evals
DEBUG:qiskit_nature.circuit.library.ansatzes.ucc:Gathering excitation generators...
DEBUG:qiskit_nature.circuit.library.ansatzes.ucc:Generating excitation list...
DEBUG:qiskit_nature.circuit.library.ansatzes.utils.fermionic_excitation_generator:Generated list of single alpha excitations: [(0, 1)]
DEBUG:qiskit_nature.circuit.library.ansatzes.utils.fermionic_excitation_generator:Generated list of single beta excitations: [(2, 3)]
DEBUG:qiskit_nature.circuit.library.ansatzes.utils.fermionic_excitation_generator:Added the excitation: ((0,), (1,))
DEBUG:qiskit_nature.circuit.library.ansatzes.utils.fermionic_excitation_generator:Added the excitation: ((2,), (3,))
DEBUG:qiskit_nature.circuit.library.ansatzes.utils.fermionic_excitation_generator:Generated list of single alpha excitations: [(0, 1)]
DEBUG:qiskit_nature.circuit.library.ansatzes.utils.fermionic_excitation_generator:Generated list of single beta excitations: [(2, 3)]
DEBUG:qiskit_nature.circuit.library.ansatzes.utils.fermionic_excitation_generator:Added the excitation: ((0, 2), (1, 3))
DEBUG:qiskit_nature.circuit.library.ansatzes.ucc:Checking excitation list...
DEBUG:qiskit_nature.circuit.library.ansatzes.ucc:Converting excitations into SecondQuantizedOps...
DEBUG:qiskit_nature.circuit.library.ansatzes.ucc:Converting SecondQuantizedOps into PauliSumOps...
DEBUG:qiskit_nature.circuit.library.ansatzes.ucc:Gathering excitation generators...
DEBUG:qiskit_nature.circuit.library.ansatzes.ucc:Generating excitation list...
DEBUG:qiskit_nature.circuit.library.ansatzes.utils.fermionic_excitation_generator:Generated list of single alpha excitations: [(0, 1)]
DEBUG:qiskit_nature.circuit.library.ansatzes.utils.fermionic_excitation_generator:Generated list of single beta excitations: [(2, 3)]
DEBUG:qiskit_nature.circuit.library.ansatzes.utils.fermionic_excitation_generator:Added the excitation: ((0,), (1,))
DEBUG:qiskit_nature.circuit.library.ansatzes.utils.fermionic_excitation_generator:Added the excitation: ((2,), (3,))
DEBUG:qiskit_nature.circuit.library.ansatzes.utils.fermionic_excitation_generator:Generated list of single alpha excitations: [(0, 1)]
DEBUG:qiskit_nature.circuit.library.ansatzes.utils.fermionic_excitation_generator:Generated list of single beta excitations: [(2, 3)]
DEBUG:qiskit_nature.circuit.library.ansatzes.utils.fermionic_excitation_generator:Added the excitation: ((0, 2), (1, 3))
DEBUG:stevedore.extension:found extension EntryPoint(name='clifford.ag', value='qiskit.transpiler.passes.synthesis.high_level_synthesis:AGSynthesisClifford', group='qiskit.synthesis')
DEBUG:stevedore.extension:found extension EntryPoint(name='clifford.bm', value='qiskit.transpiler.passes.synthesis.high_level_synthesis:BMSynthesisClifford', group='qiskit.synthesis')
DEBUG:stevedore.extension:found extension EntryPoint(name='clifford.default', value='qiskit.transpiler.passes.synthesis.high_level_synthesis:DefaultSynthesisClifford', group='qiskit.synthesis')
DEBUG:stevedore.extension:found extension EntryPoint(name='clifford.greedy', value='qiskit.transpiler.passes.synthesis.high_level_synthesis:GreedySynthesisClifford', group='qiskit.synthesis')
DEBUG:stevedore.extension:found extension EntryPoint(name='clifford.layers', value='qiskit.transpiler.passes.synthesis.high_level_synthesis:LayerSynthesisClifford', group='qiskit.synthesis')
DEBUG:stevedore.extension:found extension EntryPoint(name='clifford.lnn', value='qiskit.transpiler.passes.synthesis.high_level_synthesis:LayerLnnSynthesisClifford', group='qiskit.synthesis')
DEBUG:stevedore.extension:found extension EntryPoint(name='linear_function.default', value='qiskit.transpiler.passes.synthesis.high_level_synthesis:DefaultSynthesisLinearFunction', group='qiskit.synthesis')
DEBUG:stevedore.extension:found extension EntryPoint(name='linear_function.kms', value='qiskit.transpiler.passes.synthesis.high_level_synthesis:KMSSynthesisLinearFunction', group='qiskit.synthesis')
DEBUG:stevedore.extension:found extension EntryPoint(name='linear_function.pmh', value='qiskit.transpiler.passes.synthesis.high_level_synthesis:PMHSynthesisLinearFunction', group='qiskit.synthesis')
DEBUG:stevedore.extension:found extension EntryPoint(name='permutation.acg', value='qiskit.transpiler.passes.synthesis.high_level_synthesis:ACGSynthesisPermutation', group='qiskit.synthesis')
DEBUG:stevedore.extension:found extension EntryPoint(name='permutation.basic', value='qiskit.transpiler.passes.synthesis.high_level_synthesis:BasicSynthesisPermutation', group='qiskit.synthesis')
DEBUG:stevedore.extension:found extension EntryPoint(name='permutation.default', value='qiskit.transpiler.passes.synthesis.high_level_synthesis:BasicSynthesisPermutation', group='qiskit.synthesis')
DEBUG:stevedore.extension:found extension EntryPoint(name='permutation.kms', value='qiskit.transpiler.passes.synthesis.high_level_synthesis:KMSSynthesisPermutation', group='qiskit.synthesis')
INFO:qiskit.utils.quantum_instance:Overwriting the number of shots in the quantum instance with the settings from the backend.
INFO:qiskit.utils.quantum_instance:
Qiskit Terra version: 0.24.0
Backend: 'statevector_simulator (AerProvider)', with following setting:
{'basis_gates': ['ccx', 'cp', 'cswap', 'csx', 'cu', 'cu1', 'cu2', 'cu3', 'cx', 'cy', 'cz', 'delay', 'diagonal', 'h', 'id', 'initialize', 'mcp', 'mcphase', 'mcr', 'mcrx', 'mcry', 'mcrz', 'mcswap', 'mcsx', 'mcu', 'mcu1', 'mcu2', 'mcu3', 'mcx', 'mcy', 'mcz', 'multiplexer', 'p', 'pauli', 'r', 'rx', 'rxx', 'ry', 'ryy', 'rz', 'rzx', 'rzz', 's', 'sdg', 'swap', 'sx', 'sxdg', 't', 'tdg', 'u', 'u1', 'u2', 'u3', 'unitary', 'x', 'y', 'z', 'kraus', 'qerror_loc', 'quantum_channel', 'roerror', 'save_amplitudes', 'save_amplitudes_sq', 'save_density_matrix', 'save_expval', 'save_probs', 'save_probs_ket', 'save_state', 'save_statevector', 'set_statevector'], 'coupling_map': None}
{'initial_layout': None, 'seed_transpiler': None, 'optimization_level': None}
RunConfig(shots=1)
{'timeout': None}
{}
{}
Measurement mitigation: None
INFO:qiskit.algorithms.minimum_eigen_solvers.vqe:
==================== Setting of VQE ============================
Algorithm: VQE
-- max_evals_grouped: 1
-- circuit_sampler: <qiskit.opflow.converters.circuit_sampler.CircuitSampler object at 0x7f885b31f760>
-- expectation: None
-- include_custom: False
-- ansatz:      ┌─────────────────────────────┐
q_0: ┤0                            ├
     │                             │
q_1: ┤1                            ├
     │  EvolvedOps(t[0],t[1],t[2]) │
q_2: ┤2                            ├
     │                             │
q_3: ┤3                            ├
     └─────────────────────────────┘
-- optimizer: <qiskit.algorithms.optimizers.cobyla.COBYLA object at 0x7f8868eeebc0>
-- initial_point: Random seed
-- gradient: None
-- quantum_instance: 
Qiskit Terra version: 0.24.0
Backend: 'statevector_simulator (AerProvider)', with following setting:
{'basis_gates': ['ccx', 'cp', 'cswap', 'csx', 'cu', 'cu1', 'cu2', 'cu3', 'cx', 'cy', 'cz', 'delay', 'diagonal', 'h', 'id', 'initialize', 'mcp', 'mcphase', 'mcr', 'mcrx', 'mcry', 'mcrz', 'mcswap', 'mcsx', 'mcu', 'mcu1', 'mcu2', 'mcu3', 'mcx', 'mcy', 'mcz', 'multiplexer', 'p', 'pauli', 'r', 'rx', 'rxx', 'ry', 'ryy', 'rz', 'rzx', 'rzz', 's', 'sdg', 'swap', 'sx', 'sxdg', 't', 'tdg', 'u', 'u1', 'u2', 'u3', 'unitary', 'x', 'y', 'z', 'kraus', 'qerror_loc', 'quantum_channel', 'roerror', 'save_amplitudes', 'save_amplitudes_sq', 'save_density_matrix', 'save_expval', 'save_probs', 'save_probs_ket', 'save_state', 'save_statevector', 'set_statevector'], 'coupling_map': None}
{'initial_layout': None, 'seed_transpiler': None, 'optimization_level': None}
RunConfig(shots=1)
{'timeout': None}
{}
{}
Measurement mitigation: None
-- eval_time: None
-- eval_count: 0
-- callback: <function store_intermediate_result at 0x7f885b4ef880>
===============================================================
     ┌─────────────────────────────┐
q_0: ┤0                            ├
     │                             │
q_1: ┤1                            ├
     │  EvolvedOps(t[0],t[1],t[2]) │
q_2: ┤2                            ├
     │                             │
q_3: ┤3                            ├
     └─────────────────────────────┘===============================================================
Optimizer: COBYLA
-- method: cobyla
-- bounds_support_level: 1
-- gradient_support_level: 1
-- initial_point_support_level: 3
-- options: {'maxiter': 10000, 'disp': False, 'rhobeg': 1.0}
-- max_evals_grouped: 1
-- kwargs: {'tol': None}
===============================================================

DEBUG:stevedore.extension:found extension EntryPoint(name='basic', value='qiskit.transpiler.preset_passmanagers.builtin_plugins:BasicSwapPassManager', group='qiskit.transpiler.routing')
DEBUG:stevedore.extension:found extension EntryPoint(name='lookahead', value='qiskit.transpiler.preset_passmanagers.builtin_plugins:LookaheadSwapPassManager', group='qiskit.transpiler.routing')
DEBUG:stevedore.extension:found extension EntryPoint(name='none', value='qiskit.transpiler.preset_passmanagers.builtin_plugins:NoneRoutingPassManager', group='qiskit.transpiler.routing')
DEBUG:stevedore.extension:found extension EntryPoint(name='sabre', value='qiskit.transpiler.preset_passmanagers.builtin_plugins:SabreSwapPassManager', group='qiskit.transpiler.routing')
DEBUG:stevedore.extension:found extension EntryPoint(name='stochastic', value='qiskit.transpiler.preset_passmanagers.builtin_plugins:StochasticSwapPassManager', group='qiskit.transpiler.routing')
DEBUG:stevedore.extension:found extension EntryPoint(name='clifford.ag', value='qiskit.transpiler.passes.synthesis.high_level_synthesis:AGSynthesisClifford', group='qiskit.synthesis')
DEBUG:stevedore.extension:found extension EntryPoint(name='clifford.bm', value='qiskit.transpiler.passes.synthesis.high_level_synthesis:BMSynthesisClifford', group='qiskit.synthesis')
DEBUG:stevedore.extension:found extension EntryPoint(name='clifford.default', value='qiskit.transpiler.passes.synthesis.high_level_synthesis:DefaultSynthesisClifford', group='qiskit.synthesis')
DEBUG:stevedore.extension:found extension EntryPoint(name='clifford.greedy', value='qiskit.transpiler.passes.synthesis.high_level_synthesis:GreedySynthesisClifford', group='qiskit.synthesis')
DEBUG:stevedore.extension:found extension EntryPoint(name='clifford.layers', value='qiskit.transpiler.passes.synthesis.high_level_synthesis:LayerSynthesisClifford', group='qiskit.synthesis')
DEBUG:stevedore.extension:found extension EntryPoint(name='clifford.lnn', value='qiskit.transpiler.passes.synthesis.high_level_synthesis:LayerLnnSynthesisClifford', group='qiskit.synthesis')
DEBUG:stevedore.extension:found extension EntryPoint(name='linear_function.default', value='qiskit.transpiler.passes.synthesis.high_level_synthesis:DefaultSynthesisLinearFunction', group='qiskit.synthesis')
DEBUG:stevedore.extension:found extension EntryPoint(name='linear_function.kms', value='qiskit.transpiler.passes.synthesis.high_level_synthesis:KMSSynthesisLinearFunction', group='qiskit.synthesis')
DEBUG:stevedore.extension:found extension EntryPoint(name='linear_function.pmh', value='qiskit.transpiler.passes.synthesis.high_level_synthesis:PMHSynthesisLinearFunction', group='qiskit.synthesis')
DEBUG:stevedore.extension:found extension EntryPoint(name='permutation.acg', value='qiskit.transpiler.passes.synthesis.high_level_synthesis:ACGSynthesisPermutation', group='qiskit.synthesis')
DEBUG:stevedore.extension:found extension EntryPoint(name='permutation.basic', value='qiskit.transpiler.passes.synthesis.high_level_synthesis:BasicSynthesisPermutation', group='qiskit.synthesis')
DEBUG:stevedore.extension:found extension EntryPoint(name='permutation.default', value='qiskit.transpiler.passes.synthesis.high_level_synthesis:BasicSynthesisPermutation', group='qiskit.synthesis')
DEBUG:stevedore.extension:found extension EntryPoint(name='permutation.kms', value='qiskit.transpiler.passes.synthesis.high_level_synthesis:KMSSynthesisPermutation', group='qiskit.synthesis')
INFO:qiskit.transpiler.runningpassmanager:Pass: ContainsInstruction - 0.02122 (ms)
INFO:qiskit.transpiler.runningpassmanager:Pass: UnitarySynthesis - 0.00525 (ms)
INFO:qiskit.transpiler.runningpassmanager:Pass: HighLevelSynthesis - 0.04768 (ms)
INFO:qiskit.transpiler.runningpassmanager:Pass: UnrollCustomDefinitions - 307.80840 (ms)
INFO:qiskit.transpiler.passes.basis.basis_translator:Begin BasisTranslator from source basis {('x', 1), ('h', 1), ('cx', 2), ('s', 1), ('sdg', 1), ('rz', 1)} to target basis {'rzz', 'unitary', 'mcy', 'roerror', 'mcu3', 'rzx', 'mcswap', 'sdg', 'mcrz', 'save_amplitudes', 'mcx', 's', 't', 'cy', 'kraus', 'swap', 'save_expval', 'mcp', 'quantum_channel', 'cx', 'mcr', 'initialize', 'mcu', 'cu1', 'csx', 'save_probs', 'tdg', 'u2', 'save_statevector', 'delay', 'sxdg', 'u3', 'rxx', 'mcry', 'multiplexer', 'save_density_matrix', 'save_state', 'rx', 'u1', 'sx', 'cz', 'mcu1', 'ry', 'mcz', 'rz', 'x', 'cu', 'mcu2', 'p', 'barrier', 'ryy', 'h', 'mcsx', 'u', 'cp', 'save_amplitudes_sq', 'cu2', 'cswap', 'snapshot', 'diagonal', 'set_statevector', 'pauli', 'qerror_loc', 'mcphase', 'y', 'save_probs_ket', 'z', 'id', 'reset', 'ccx', 'measure', 'cu3', 'mcrx', 'r'}.
DEBUG:qiskit.transpiler.passes.basis.basis_translator:Begining basis search from {('x', 1), ('h', 1), ('cx', 2), ('s', 1), ('sdg', 1), ('rz', 1)} to {'rzz', 'unitary', 'mcy', 'roerror', 'mcu3', 'rzx', 'mcswap', 'sdg', 'mcrz', 'save_amplitudes', 'mcx', 's', 't', 'cy', 'kraus', 'swap', 'save_expval', 'mcp', 'quantum_channel', 'cx', 'mcr', 'initialize', 'mcu', 'cu1', 'csx', 'save_probs', 'tdg', 'u2', 'save_statevector', 'delay', 'sxdg', 'u3', 'rxx', 'mcry', 'multiplexer', 'save_density_matrix', 'save_state', 'rx', 'u1', 'sx', 'cz', 'mcu1', 'ry', 'mcz', 'rz', 'x', 'cu', 'mcu2', 'p', 'barrier', 'ryy', 'h', 'mcsx', 'u', 'cp', 'save_amplitudes_sq', 'cu2', 'cswap', 'snapshot', 'diagonal', 'set_statevector', 'pauli', 'qerror_loc', 'mcphase', 'y', 'save_probs_ket', 'z', 'id', 'reset', 'ccx', 'measure', 'cu3', 'mcrx', 'r'}.
INFO:qiskit.transpiler.passes.basis.basis_translator:Basis translation path search completed in 0.002s.
INFO:qiskit.transpiler.passes.basis.basis_translator:Basis translation paths composed in 0.002s.
INFO:qiskit.transpiler.passes.basis.basis_translator:Basis translation instructions replaced in 0.001s.
INFO:qiskit.transpiler.runningpassmanager:Pass: BasisTranslator - 11.48510 (ms)
INFO:qiskit.transpiler.runningpassmanager:Pass: RemoveResetInZeroState - 0.28968 (ms)
INFO:qiskit.transpiler.runningpassmanager:Pass: Depth - 0.54145 (ms)
INFO:qiskit.transpiler.runningpassmanager:Pass: FixedPoint - 0.03672 (ms)
INFO:qiskit.transpiler.runningpassmanager:Pass: Size - 0.26226 (ms)
INFO:qiskit.transpiler.runningpassmanager:Pass: FixedPoint - 0.02670 (ms)
INFO:qiskit.transpiler.runningpassmanager:Pass: Optimize1qGatesDecomposition - 8.78000 (ms)
INFO:qiskit.transpiler.runningpassmanager:Pass: CXCancellation - 1.07265 (ms)
INFO:qiskit.transpiler.runningpassmanager:Pass: GatesInBasis - 0.23794 (ms)
INFO:qiskit.transpiler.runningpassmanager:Pass: Depth - 0.38171 (ms)
INFO:qiskit.transpiler.runningpassmanager:Pass: FixedPoint - 0.05364 (ms)
INFO:qiskit.transpiler.runningpassmanager:Pass: Size - 0.27013 (ms)
INFO:qiskit.transpiler.runningpassmanager:Pass: FixedPoint - 0.04697 (ms)
INFO:qiskit.transpiler.runningpassmanager:Pass: Optimize1qGatesDecomposition - 1.77503 (ms)
INFO:qiskit.transpiler.runningpassmanager:Pass: CXCancellation - 0.46635 (ms)
INFO:qiskit.transpiler.runningpassmanager:Pass: GatesInBasis - 0.19145 (ms)
INFO:qiskit.transpiler.runningpassmanager:Pass: Depth - 0.21720 (ms)
INFO:qiskit.transpiler.runningpassmanager:Pass: FixedPoint - 0.03242 (ms)
INFO:qiskit.transpiler.runningpassmanager:Pass: Size - 0.14973 (ms)
INFO:qiskit.transpiler.runningpassmanager:Pass: FixedPoint - 0.02551 (ms)
INFO:qiskit.transpiler.runningpassmanager:Pass: ContainsInstruction - 0.15450 (ms)
INFO:qiskit.compiler.transpiler:Total Transpile Time - 388.39459 (ms)
DEBUG:qiskit.utils.quantum_instance:==== Before transpiler ====
DEBUG:qiskit.utils.quantum_instance:Submitting 1 circuits.
============================================================================
0-th circuit: 4 qubits, 0 classical bits and 1 operations with depth 1
op_counts: OrderedDict([('EvolvedOps', 1)])
============================================================================

DEBUG:qiskit.utils.quantum_instance:====  After transpiler ====
DEBUG:qiskit.utils.quantum_instance:Submitting 1 circuits.
============================================================================
0-th circuit: 4 qubits, 0 classical bits and 99 operations with depth 73
op_counts: OrderedDict([('cx', 56), ('u2', 26), ('rz', 12), ('h', 5)])
============================================================================

DEBUG:qiskit.opflow.converters.circuit_sampler:Parameter conversion 2.16746 (ms)
INFO:qiskit.algorithms.minimum_eigen_solvers.vqe:Energy evaluation returned [-1.83696799] - 402.74858 (ms), eval count: 1
DEBUG:qiskit.opflow.converters.circuit_sampler:Parameter conversion 0.70405 (ms)
INFO:qiskit.algorithms.minimum_eigen_solvers.vqe:Energy evaluation returned [-1.28940445] - 6.33168 (ms), eval count: 2
DEBUG:qiskit.opflow.converters.circuit_sampler:Parameter conversion 0.76532 (ms)
INFO:qiskit.algorithms.minimum_eigen_solvers.vqe:Energy evaluation returned [-1.28940445] - 5.92756 (ms), eval count: 3
DEBUG:qiskit.opflow.converters.circuit_sampler:Parameter conversion 0.60725 (ms)
INFO:qiskit.algorithms.minimum_eigen_solvers.vqe:Energy evaluation returned [-0.87441261] - 5.95260 (ms), eval count: 4
DEBUG:qiskit.opflow.converters.circuit_sampler:Parameter conversion 0.64468 (ms)
INFO:qiskit.algorithms.minimum_eigen_solvers.vqe:Energy evaluation returned [-0.64588933] - 5.97739 (ms), eval count: 5
DEBUG:qiskit.opflow.converters.circuit_sampler:Parameter conversion 0.62943 (ms)
INFO:qiskit.algorithms.minimum_eigen_solvers.vqe:Energy evaluation returned [-1.35996023] - 7.08747 (ms), eval count: 6
DEBUG:qiskit.opflow.converters.circuit_sampler:Parameter conversion 0.65446 (ms)
INFO:qiskit.algorithms.minimum_eigen_solvers.vqe:Energy evaluation returned [-1.77567598] - 7.62796 (ms), eval count: 7
DEBUG:qiskit.opflow.converters.circuit_sampler:Parameter conversion 0.64373 (ms)
INFO:qiskit.algorithms.minimum_eigen_solvers.vqe:Energy evaluation returned [-1.79982695] - 6.28448 (ms), eval count: 8
DEBUG:qiskit.opflow.converters.circuit_sampler:Parameter conversion 0.68021 (ms)
INFO:qiskit.algorithms.minimum_eigen_solvers.vqe:Energy evaluation returned [-1.82671527] - 5.63288 (ms), eval count: 9
DEBUG:qiskit.opflow.converters.circuit_sampler:Parameter conversion 0.63682 (ms)
INFO:qiskit.algorithms.minimum_eigen_solvers.vqe:Energy evaluation returned [-1.82379203] - 5.89395 (ms), eval count: 10
DEBUG:qiskit.opflow.converters.circuit_sampler:Parameter conversion 0.64039 (ms)
INFO:qiskit.algorithms.minimum_eigen_solvers.vqe:Energy evaluation returned [-1.83631635] - 5.59545 (ms), eval count: 11
DEBUG:qiskit.opflow.converters.circuit_sampler:Parameter conversion 0.63944 (ms)
INFO:qiskit.algorithms.minimum_eigen_solvers.vqe:Energy evaluation returned [-1.85288769] - 5.50032 (ms), eval count: 12
DEBUG:qiskit.opflow.converters.circuit_sampler:Parameter conversion 0.77391 (ms)
INFO:qiskit.algorithms.minimum_eigen_solvers.vqe:Energy evaluation returned [-1.85538887] - 5.67865 (ms), eval count: 13
DEBUG:qiskit.opflow.converters.circuit_sampler:Parameter conversion 0.63968 (ms)
INFO:qiskit.algorithms.minimum_eigen_solvers.vqe:Energy evaluation returned [-1.8548609] - 5.69892 (ms), eval count: 14
DEBUG:qiskit.opflow.converters.circuit_sampler:Parameter conversion 0.72360 (ms)
INFO:qiskit.algorithms.minimum_eigen_solvers.vqe:Energy evaluation returned [-1.85468376] - 5.72705 (ms), eval count: 15
DEBUG:qiskit.opflow.converters.circuit_sampler:Parameter conversion 0.64325 (ms)
INFO:qiskit.algorithms.minimum_eigen_solvers.vqe:Energy evaluation returned [-1.84752906] - 5.56898 (ms), eval count: 16
DEBUG:qiskit.opflow.converters.circuit_sampler:Parameter conversion 0.62990 (ms)
INFO:qiskit.algorithms.minimum_eigen_solvers.vqe:Energy evaluation returned [-1.85254162] - 5.64718 (ms), eval count: 17
DEBUG:qiskit.opflow.converters.circuit_sampler:Parameter conversion 0.69690 (ms)
INFO:qiskit.algorithms.minimum_eigen_solvers.vqe:Energy evaluation returned [-1.85579789] - 5.83339 (ms), eval count: 18
DEBUG:qiskit.opflow.converters.circuit_sampler:Parameter conversion 0.63539 (ms)
INFO:qiskit.algorithms.minimum_eigen_solvers.vqe:Energy evaluation returned [-1.85675571] - 5.58996 (ms), eval count: 19
DEBUG:qiskit.opflow.converters.circuit_sampler:Parameter conversion 0.65351 (ms)
INFO:qiskit.algorithms.minimum_eigen_solvers.vqe:Energy evaluation returned [-1.85720351] - 6.39701 (ms), eval count: 20
DEBUG:qiskit.opflow.converters.circuit_sampler:Parameter conversion 0.66447 (ms)
INFO:qiskit.algorithms.minimum_eigen_solvers.vqe:Energy evaluation returned [-1.8569164] - 5.75018 (ms), eval count: 21
DEBUG:qiskit.opflow.converters.circuit_sampler:Parameter conversion 0.62943 (ms)
INFO:qiskit.algorithms.minimum_eigen_solvers.vqe:Energy evaluation returned [-1.85721867] - 5.61094 (ms), eval count: 22
DEBUG:qiskit.opflow.converters.circuit_sampler:Parameter conversion 0.63372 (ms)
INFO:qiskit.algorithms.minimum_eigen_solvers.vqe:Energy evaluation returned [-1.85706347] - 5.73540 (ms), eval count: 23
DEBUG:qiskit.opflow.converters.circuit_sampler:Parameter conversion 0.62799 (ms)
INFO:qiskit.algorithms.minimum_eigen_solvers.vqe:Energy evaluation returned [-1.85708754] - 5.51391 (ms), eval count: 24
DEBUG:qiskit.opflow.converters.circuit_sampler:Parameter conversion 0.67472 (ms)
INFO:qiskit.algorithms.minimum_eigen_solvers.vqe:Energy evaluation returned [-1.8571344] - 5.71418 (ms), eval count: 25
DEBUG:qiskit.opflow.converters.circuit_sampler:Parameter conversion 0.62966 (ms)
INFO:qiskit.algorithms.minimum_eigen_solvers.vqe:Energy evaluation returned [-1.85724639] - 5.66196 (ms), eval count: 26
DEBUG:qiskit.opflow.converters.circuit_sampler:Parameter conversion 0.63920 (ms)
INFO:qiskit.algorithms.minimum_eigen_solvers.vqe:Energy evaluation returned [-1.85720372] - 5.62191 (ms), eval count: 27
DEBUG:qiskit.opflow.converters.circuit_sampler:Parameter conversion 0.63467 (ms)
INFO:qiskit.algorithms.minimum_eigen_solvers.vqe:Energy evaluation returned [-1.85723706] - 5.64814 (ms), eval count: 28
DEBUG:qiskit.opflow.converters.circuit_sampler:Parameter conversion 0.62752 (ms)
INFO:qiskit.algorithms.minimum_eigen_solvers.vqe:Energy evaluation returned [-1.85726866] - 5.58257 (ms), eval count: 29
DEBUG:qiskit.opflow.converters.circuit_sampler:Parameter conversion 0.64611 (ms)
INFO:qiskit.algorithms.minimum_eigen_solvers.vqe:Energy evaluation returned [-1.85726514] - 5.69916 (ms), eval count: 30
DEBUG:qiskit.opflow.converters.circuit_sampler:Parameter conversion 0.62704 (ms)
INFO:qiskit.algorithms.minimum_eigen_solvers.vqe:Energy evaluation returned [-1.85726847] - 5.73134 (ms), eval count: 31
DEBUG:qiskit.opflow.converters.circuit_sampler:Parameter conversion 0.68903 (ms)
INFO:qiskit.algorithms.minimum_eigen_solvers.vqe:Energy evaluation returned [-1.85726187] - 8.40545 (ms), eval count: 32
DEBUG:qiskit.opflow.converters.circuit_sampler:Parameter conversion 0.64874 (ms)
INFO:qiskit.algorithms.minimum_eigen_solvers.vqe:Energy evaluation returned [-1.85727094] - 7.39264 (ms), eval count: 33
DEBUG:qiskit.opflow.converters.circuit_sampler:Parameter conversion 0.68045 (ms)
INFO:qiskit.algorithms.minimum_eigen_solvers.vqe:Energy evaluation returned [-1.85727038] - 5.80120 (ms), eval count: 34
DEBUG:qiskit.opflow.converters.circuit_sampler:Parameter conversion 0.63252 (ms)
INFO:qiskit.algorithms.minimum_eigen_solvers.vqe:Energy evaluation returned [-1.85726914] - 5.57542 (ms), eval count: 35
DEBUG:qiskit.opflow.converters.circuit_sampler:Parameter conversion 0.62776 (ms)
INFO:qiskit.algorithms.minimum_eigen_solvers.vqe:Energy evaluation returned [-1.85727313] - 5.66602 (ms), eval count: 36
DEBUG:qiskit.opflow.converters.circuit_sampler:Parameter conversion 0.63705 (ms)
INFO:qiskit.algorithms.minimum_eigen_solvers.vqe:Energy evaluation returned [-1.85727323] - 5.78976 (ms), eval count: 37
DEBUG:qiskit.opflow.converters.circuit_sampler:Parameter conversion 0.63372 (ms)
INFO:qiskit.algorithms.minimum_eigen_solvers.vqe:Energy evaluation returned [-1.85727183] - 5.67770 (ms), eval count: 38
DEBUG:qiskit.opflow.converters.circuit_sampler:Parameter conversion 0.62203 (ms)
INFO:qiskit.algorithms.minimum_eigen_solvers.vqe:Energy evaluation returned [-1.85727482] - 5.85413 (ms), eval count: 39
DEBUG:qiskit.opflow.converters.circuit_sampler:Parameter conversion 0.61631 (ms)
INFO:qiskit.algorithms.minimum_eigen_solvers.vqe:Energy evaluation returned [-1.85727451] - 5.84841 (ms), eval count: 40
DEBUG:qiskit.opflow.converters.circuit_sampler:Parameter conversion 0.61560 (ms)
INFO:qiskit.algorithms.minimum_eigen_solvers.vqe:Energy evaluation returned [-1.85727445] - 5.63502 (ms), eval count: 41
DEBUG:qiskit.opflow.converters.circuit_sampler:Parameter conversion 0.67925 (ms)
INFO:qiskit.algorithms.minimum_eigen_solvers.vqe:Energy evaluation returned [-1.85727409] - 5.75161 (ms), eval count: 42
DEBUG:qiskit.opflow.converters.circuit_sampler:Parameter conversion 0.61822 (ms)
INFO:qiskit.algorithms.minimum_eigen_solvers.vqe:Energy evaluation returned [-1.8572747] - 5.72491 (ms), eval count: 43
DEBUG:qiskit.opflow.converters.circuit_sampler:Parameter conversion 0.85044 (ms)
INFO:qiskit.algorithms.minimum_eigen_solvers.vqe:Energy evaluation returned [-1.85727496] - 6.85191 (ms), eval count: 44
DEBUG:qiskit.opflow.converters.circuit_sampler:Parameter conversion 0.62251 (ms)
INFO:qiskit.algorithms.minimum_eigen_solvers.vqe:Energy evaluation returned [-1.85727502] - 5.77044 (ms), eval count: 45
DEBUG:qiskit.opflow.converters.circuit_sampler:Parameter conversion 0.73338 (ms)
INFO:qiskit.algorithms.minimum_eigen_solvers.vqe:Energy evaluation returned [-1.857275] - 7.78365 (ms), eval count: 46
DEBUG:qiskit.opflow.converters.circuit_sampler:Parameter conversion 0.69427 (ms)
INFO:qiskit.algorithms.minimum_eigen_solvers.vqe:Energy evaluation returned [-1.85727498] - 5.75447 (ms), eval count: 47
DEBUG:qiskit.opflow.converters.circuit_sampler:Parameter conversion 0.62895 (ms)
INFO:qiskit.algorithms.minimum_eigen_solvers.vqe:Energy evaluation returned [-1.85727501] - 5.78523 (ms), eval count: 48
DEBUG:qiskit.opflow.converters.circuit_sampler:Parameter conversion 0.61226 (ms)
INFO:qiskit.algorithms.minimum_eigen_solvers.vqe:Energy evaluation returned [-1.85727503] - 6.00457 (ms), eval count: 49
DEBUG:qiskit.opflow.converters.circuit_sampler:Parameter conversion 0.61870 (ms)
INFO:qiskit.algorithms.minimum_eigen_solvers.vqe:Energy evaluation returned [-1.85727502] - 5.66959 (ms), eval count: 50
DEBUG:stevedore.extension:found extension EntryPoint(name='basic', value='qiskit.transpiler.preset_passmanagers.builtin_plugins:BasicSwapPassManager', group='qiskit.transpiler.routing')
DEBUG:stevedore.extension:found extension EntryPoint(name='lookahead', value='qiskit.transpiler.preset_passmanagers.builtin_plugins:LookaheadSwapPassManager', group='qiskit.transpiler.routing')
DEBUG:stevedore.extension:found extension EntryPoint(name='none', value='qiskit.transpiler.preset_passmanagers.builtin_plugins:NoneRoutingPassManager', group='qiskit.transpiler.routing')
DEBUG:stevedore.extension:found extension EntryPoint(name='sabre', value='qiskit.transpiler.preset_passmanagers.builtin_plugins:SabreSwapPassManager', group='qiskit.transpiler.routing')
DEBUG:stevedore.extension:found extension EntryPoint(name='stochastic', value='qiskit.transpiler.preset_passmanagers.builtin_plugins:StochasticSwapPassManager', group='qiskit.transpiler.routing')
DEBUG:stevedore.extension:found extension EntryPoint(name='clifford.ag', value='qiskit.transpiler.passes.synthesis.high_level_synthesis:AGSynthesisClifford', group='qiskit.synthesis')
DEBUG:stevedore.extension:found extension EntryPoint(name='clifford.bm', value='qiskit.transpiler.passes.synthesis.high_level_synthesis:BMSynthesisClifford', group='qiskit.synthesis')
DEBUG:stevedore.extension:found extension EntryPoint(name='clifford.default', value='qiskit.transpiler.passes.synthesis.high_level_synthesis:DefaultSynthesisClifford', group='qiskit.synthesis')
DEBUG:stevedore.extension:found extension EntryPoint(name='clifford.greedy', value='qiskit.transpiler.passes.synthesis.high_level_synthesis:GreedySynthesisClifford', group='qiskit.synthesis')
DEBUG:stevedore.extension:found extension EntryPoint(name='clifford.layers', value='qiskit.transpiler.passes.synthesis.high_level_synthesis:LayerSynthesisClifford', group='qiskit.synthesis')
DEBUG:stevedore.extension:found extension EntryPoint(name='clifford.lnn', value='qiskit.transpiler.passes.synthesis.high_level_synthesis:LayerLnnSynthesisClifford', group='qiskit.synthesis')
DEBUG:stevedore.extension:found extension EntryPoint(name='linear_function.default', value='qiskit.transpiler.passes.synthesis.high_level_synthesis:DefaultSynthesisLinearFunction', group='qiskit.synthesis')
DEBUG:stevedore.extension:found extension EntryPoint(name='linear_function.kms', value='qiskit.transpiler.passes.synthesis.high_level_synthesis:KMSSynthesisLinearFunction', group='qiskit.synthesis')
DEBUG:stevedore.extension:found extension EntryPoint(name='linear_function.pmh', value='qiskit.transpiler.passes.synthesis.high_level_synthesis:PMHSynthesisLinearFunction', group='qiskit.synthesis')
DEBUG:stevedore.extension:found extension EntryPoint(name='permutation.acg', value='qiskit.transpiler.passes.synthesis.high_level_synthesis:ACGSynthesisPermutation', group='qiskit.synthesis')
DEBUG:stevedore.extension:found extension EntryPoint(name='permutation.basic', value='qiskit.transpiler.passes.synthesis.high_level_synthesis:BasicSynthesisPermutation', group='qiskit.synthesis')
DEBUG:stevedore.extension:found extension EntryPoint(name='permutation.default', value='qiskit.transpiler.passes.synthesis.high_level_synthesis:BasicSynthesisPermutation', group='qiskit.synthesis')
DEBUG:stevedore.extension:found extension EntryPoint(name='permutation.kms', value='qiskit.transpiler.passes.synthesis.high_level_synthesis:KMSSynthesisPermutation', group='qiskit.synthesis')
INFO:qiskit.transpiler.runningpassmanager:Pass: ContainsInstruction - 0.01836 (ms)
INFO:qiskit.transpiler.runningpassmanager:Pass: UnitarySynthesis - 0.00572 (ms)
INFO:qiskit.transpiler.runningpassmanager:Pass: HighLevelSynthesis - 0.05531 (ms)
INFO:qiskit.transpiler.runningpassmanager:Pass: UnrollCustomDefinitions - 53.82919 (ms)
INFO:qiskit.transpiler.passes.basis.basis_translator:Begin BasisTranslator from source basis {('x', 1), ('h', 1), ('cx', 2), ('s', 1), ('sdg', 1), ('rz', 1)} to target basis {'rzz', 'unitary', 'mcy', 'roerror', 'mcu3', 'rzx', 'mcswap', 'sdg', 'mcrz', 'save_amplitudes', 'mcx', 's', 't', 'cy', 'kraus', 'swap', 'save_expval', 'mcp', 'quantum_channel', 'cx', 'mcr', 'initialize', 'mcu', 'cu1', 'csx', 'save_probs', 'tdg', 'u2', 'save_statevector', 'delay', 'sxdg', 'u3', 'rxx', 'mcry', 'multiplexer', 'save_density_matrix', 'save_state', 'rx', 'u1', 'sx', 'cz', 'mcu1', 'ry', 'mcz', 'rz', 'x', 'cu', 'mcu2', 'p', 'barrier', 'ryy', 'h', 'mcsx', 'u', 'cp', 'save_amplitudes_sq', 'cu2', 'cswap', 'snapshot', 'diagonal', 'set_statevector', 'pauli', 'qerror_loc', 'mcphase', 'y', 'save_probs_ket', 'z', 'id', 'reset', 'ccx', 'measure', 'cu3', 'mcrx', 'r'}.
DEBUG:qiskit.transpiler.passes.basis.basis_translator:Begining basis search from {('x', 1), ('h', 1), ('cx', 2), ('s', 1), ('sdg', 1), ('rz', 1)} to {'rzz', 'unitary', 'mcy', 'roerror', 'mcu3', 'rzx', 'mcswap', 'sdg', 'mcrz', 'save_amplitudes', 'mcx', 's', 't', 'cy', 'kraus', 'swap', 'save_expval', 'mcp', 'quantum_channel', 'cx', 'mcr', 'initialize', 'mcu', 'cu1', 'csx', 'save_probs', 'tdg', 'u2', 'save_statevector', 'delay', 'sxdg', 'u3', 'rxx', 'mcry', 'multiplexer', 'save_density_matrix', 'save_state', 'rx', 'u1', 'sx', 'cz', 'mcu1', 'ry', 'mcz', 'rz', 'x', 'cu', 'mcu2', 'p', 'barrier', 'ryy', 'h', 'mcsx', 'u', 'cp', 'save_amplitudes_sq', 'cu2', 'cswap', 'snapshot', 'diagonal', 'set_statevector', 'pauli', 'qerror_loc', 'mcphase', 'y', 'save_probs_ket', 'z', 'id', 'reset', 'ccx', 'measure', 'cu3', 'mcrx', 'r'}.
INFO:qiskit.transpiler.passes.basis.basis_translator:Basis translation path search completed in 0.001s.
INFO:qiskit.transpiler.passes.basis.basis_translator:Basis translation paths composed in 0.001s.
INFO:qiskit.transpiler.passes.basis.basis_translator:Basis translation instructions replaced in 0.001s.
INFO:qiskit.transpiler.runningpassmanager:Pass: BasisTranslator - 7.69687 (ms)
INFO:qiskit.transpiler.runningpassmanager:Pass: RemoveResetInZeroState - 0.15950 (ms)
INFO:qiskit.transpiler.runningpassmanager:Pass: Depth - 0.37575 (ms)
INFO:qiskit.transpiler.runningpassmanager:Pass: FixedPoint - 0.02861 (ms)
INFO:qiskit.transpiler.runningpassmanager:Pass: Size - 0.22125 (ms)
INFO:qiskit.transpiler.runningpassmanager:Pass: FixedPoint - 0.02265 (ms)
INFO:qiskit.transpiler.runningpassmanager:Pass: Optimize1qGatesDecomposition - 9.86242 (ms)
INFO:qiskit.transpiler.runningpassmanager:Pass: CXCancellation - 0.48304 (ms)
INFO:qiskit.transpiler.runningpassmanager:Pass: GatesInBasis - 0.15759 (ms)
INFO:qiskit.transpiler.runningpassmanager:Pass: Depth - 0.19884 (ms)
INFO:qiskit.transpiler.runningpassmanager:Pass: FixedPoint - 0.02885 (ms)
INFO:qiskit.transpiler.runningpassmanager:Pass: Size - 0.13185 (ms)
INFO:qiskit.transpiler.runningpassmanager:Pass: FixedPoint - 0.02718 (ms)
INFO:qiskit.transpiler.runningpassmanager:Pass: Optimize1qGatesDecomposition - 1.88804 (ms)
INFO:qiskit.transpiler.runningpassmanager:Pass: CXCancellation - 0.37479 (ms)
INFO:qiskit.transpiler.runningpassmanager:Pass: GatesInBasis - 0.15879 (ms)
INFO:qiskit.transpiler.runningpassmanager:Pass: Depth - 0.19932 (ms)
INFO:qiskit.transpiler.runningpassmanager:Pass: FixedPoint - 0.03576 (ms)
INFO:qiskit.transpiler.runningpassmanager:Pass: Size - 0.25010 (ms)
INFO:qiskit.transpiler.runningpassmanager:Pass: FixedPoint - 0.04292 (ms)
INFO:qiskit.transpiler.runningpassmanager:Pass: ContainsInstruction - 0.38266 (ms)
INFO:qiskit.compiler.transpiler:Total Transpile Time - 128.56507 (ms)
INFO:qiskit.algorithms.minimum_eigen_solvers.vqe:Optimization complete in 0.7857561111450195 seconds.
Found opt_params [-2.20488043e-05  3.55748133e-05  1.11834602e-01] in 50 evals
DEBUG:qiskit_nature.drivers.second_quantization.pyscfd.pyscfdriver:PySCF processing messages log:
System: uname_result(system='Linux', node='DESKTOP-GR7HJ9S', release='5.15.90.1-microsoft-standard-WSL2', version='#1 SMP Fri Jan 27 02:56:13 UTC 2023', machine='x86_64')  Threads 4
Python 3.10.6 (main, Mar 10 2023, 10:55:28) [GCC 11.3.0]
numpy 1.24.3  scipy 1.10.1
Date: Mon May 22 18:33:13 2023
PySCF version 2.2.1
PySCF path  /home/meghashree/.local/lib/python3.10/site-packages/pyscf

[CONFIG] conf_file None
[INPUT] verbose = 4
[INPUT] num. atoms = 2
[INPUT] num. electrons = 2
[INPUT] charge = 0
[INPUT] spin (= nelec alpha-beta = 2S) = 0
[INPUT] symmetry False subgroup None
[INPUT] Mole.unit = Angstrom
[INPUT] Symbol           X                Y                Z      unit          X                Y                Z       unit  Magmom
[INPUT]  1 H      0.000000000000   0.000000000000   0.000000000000 AA    0.000000000000   0.000000000000   0.000000000000 Bohr   0.0
[INPUT]  2 H      0.000000000000   0.000000000000   0.735000000000 AA    0.000000000000   0.000000000000   1.388948701555 Bohr   0.0

nuclear repulsion = 0.71996899444898
number of shells = 2
number of NR pGTOs = 6
number of NR cGTOs = 2
basis = sto3g
ecp = {}
CPU time:         6.94

INFO:qiskit_nature.drivers.second_quantization.pyscfd.pyscfdriver:PySCF kernel() converged: True, e(hf): -1.116998996754004
INFO:qiskit_nature.drivers.second_quantization.pyscfd.pyscfdriver:HF Electronic dipole moment: [-0.        -0.        -1.3889487]
INFO:qiskit_nature.drivers.second_quantization.pyscfd.pyscfdriver:Nuclear dipole moment: [0.        0.        1.3889487]
INFO:qiskit_nature.drivers.second_quantization.pyscfd.pyscfdriver:Total dipole moment: [0. 0. 0.]
DEBUG:qiskit.algorithms.eigen_solvers.numpy_eigen_solver:EigensolverResult:
{   'aux_operator_eigenvalues': [   {   'AngularMomentum': (0.0, 0.0),
                                        'DipoleMomentX': (0.0, 0.0),
                                        'DipoleMomentY': (0.0, 0.0),
                                        'DipoleMomentZ': (   (1.3889487015553192-1.1102230246251565e-16j),
                                                             0.0),
                                        'Magnetization': (0.0, 0.0),
                                        'ParticleNumber': (   (1.9999999999999996+0j),
                                                              0.0)}],
    'eigenstates': ListOp([VectorStateFn(Statevector([-1.63596124e-16-3.79493642e-19j,
              1.90998128e-16+1.80970791e-16j,
              7.23247838e-19+1.88624891e-18j,
             -2.76783438e-16+6.73913044e-17j,
             -6.55686300e-17+8.12887978e-17j,
             -6.66746191e-01-7.36891615e-01j,
              7.36920835e-17+1.58917407e-16j,
              6.26374820e-17-1.36207043e-16j,
              1.85239429e-17+9.58309815e-18j,
             -1.65945807e-16-1.63891385e-16j,
              7.48330908e-02+8.27059500e-02j,
             -1.60989899e-17-1.15057577e-17j,
              2.44974617e-16-1.08482136e-16j,
             -2.73819327e-17+1.60914145e-16j,
              6.92058536e-18+3.14287155e-17j,
              1.88421444e-17-5.36637920e-17j],
            dims=(2, 2, 2, 2)), coeff=1.0, is_measurement=False)], coeff=1.0, abelian=False),
    'eigenvalues': array([-1.85727503])}
DEBUG:qiskit.algorithms.minimum_eigen_solvers.numpy_minimum_eigen_solver:MinimumEigensolver:
{   'aux_operator_eigenvalues': {   'AngularMomentum': (0.0, 0.0),
                                    'DipoleMomentX': (0.0, 0.0),
                                    'DipoleMomentY': (0.0, 0.0),
                                    'DipoleMomentZ': (   (1.3889487015553192-1.1102230246251565e-16j),
                                                         0.0),
                                    'Magnetization': (0.0, 0.0),
                                    'ParticleNumber': (   (1.9999999999999996+0j),
                                                          0.0)},
    'eigenstate': VectorStateFn(Statevector([-1.63596124e-16-3.79493642e-19j,
              1.90998128e-16+1.80970791e-16j,
              7.23247838e-19+1.88624891e-18j,
             -2.76783438e-16+6.73913044e-17j,
             -6.55686300e-17+8.12887978e-17j,
             -6.66746191e-01-7.36891615e-01j,
              7.36920835e-17+1.58917407e-16j,
              6.26374820e-17-1.36207043e-16j,
              1.85239429e-17+9.58309815e-18j,
             -1.65945807e-16-1.63891385e-16j,
              7.48330908e-02+8.27059500e-02j,
             -1.60989899e-17-1.15057577e-17j,
              2.44974617e-16-1.08482136e-16j,
             -2.73819327e-17+1.60914145e-16j,
              6.92058536e-18+3.14287155e-17j,
              1.88421444e-17-5.36637920e-17j],
            dims=(2, 2, 2, 2)), coeff=1.0, is_measurement=False),
    'eigenvalue': -1.8572750302023826}
DEBUG:qiskit_nature.drivers.second_quantization.pyscfd.pyscfdriver:PySCF processing messages log:
System: uname_result(system='Linux', node='DESKTOP-GR7HJ9S', release='5.15.90.1-microsoft-standard-WSL2', version='#1 SMP Fri Jan 27 02:56:13 UTC 2023', machine='x86_64')  Threads 4
Python 3.10.6 (main, Mar 10 2023, 10:55:28) [GCC 11.3.0]
numpy 1.24.3  scipy 1.10.1
Date: Mon May 22 18:36:04 2023
PySCF version 2.2.1
PySCF path  /home/meghashree/.local/lib/python3.10/site-packages/pyscf

[CONFIG] conf_file None
[INPUT] verbose = 4
[INPUT] num. atoms = 2
[INPUT] num. electrons = 2
[INPUT] charge = 0
[INPUT] spin (= nelec alpha-beta = 2S) = 0
[INPUT] symmetry False subgroup None
[INPUT] Mole.unit = Angstrom
[INPUT] Symbol           X                Y                Z      unit          X                Y                Z       unit  Magmom
[INPUT]  1 H      0.000000000000   0.000000000000   0.000000000000 AA    0.000000000000   0.000000000000   0.000000000000 Bohr   0.0
[INPUT]  2 H      0.000000000000   0.000000000000   0.735000000000 AA    0.000000000000   0.000000000000   1.388948701555 Bohr   0.0

nuclear repulsion = 0.71996899444898
number of shells = 2
number of NR pGTOs = 6
number of NR cGTOs = 2
basis = sto3g
ecp = {}
CPU time:         5.32

DEBUG:h5py._conv:Creating converter from 5 to 3
INFO:qiskit_nature.drivers.second_quantization.pyscfd.pyscfdriver:PySCF kernel() converged: True, e(hf): -1.116998996754004
INFO:qiskit_nature.drivers.second_quantization.pyscfd.pyscfdriver:HF Electronic dipole moment: [-0.        -0.        -1.3889487]
INFO:qiskit_nature.drivers.second_quantization.pyscfd.pyscfdriver:Nuclear dipole moment: [0.        0.        1.3889487]
INFO:qiskit_nature.drivers.second_quantization.pyscfd.pyscfdriver:Total dipole moment: [0. 0. 0.]
INFO:qiskit.compiler.assembler:Total Assembly Time - 0.28706 (ms)
INFO:qiskit.compiler.assembler:Total Assembly Time - 0.16212 (ms)
INFO:qiskit.compiler.assembler:Total Assembly Time - 0.16308 (ms)
INFO:qiskit.compiler.assembler:Total Assembly Time - 0.14281 (ms)
INFO:qiskit.compiler.assembler:Total Assembly Time - 0.13041 (ms)
INFO:qiskit.compiler.assembler:Total Assembly Time - 0.12803 (ms)
INFO:qiskit.compiler.assembler:Total Assembly Time - 0.13304 (ms)
INFO:qiskit.compiler.assembler:Total Assembly Time - 0.26131 (ms)
INFO:qiskit.compiler.assembler:Total Assembly Time - 0.19097 (ms)
INFO:qiskit.compiler.assembler:Total Assembly Time - 0.16475 (ms)
INFO:qiskit.compiler.assembler:Total Assembly Time - 0.15378 (ms)
INFO:qiskit.compiler.assembler:Total Assembly Time - 0.15807 (ms)
INFO:qiskit.compiler.assembler:Total Assembly Time - 0.14329 (ms)
INFO:qiskit.compiler.assembler:Total Assembly Time - 0.15092 (ms)
INFO:qiskit.compiler.assembler:Total Assembly Time - 0.14782 (ms)
INFO:qiskit.utils.quantum_instance:Overwriting the number of shots in the quantum instance with the settings from the backend.
DEBUG:qiskit.utils.backend_utils:IBMQFactory/AccountProvider not loaded: 'No module named 'qiskit.providers.ibmq''
INFO:qiskit.utils.quantum_instance:
Qiskit Terra version: 0.24.0
Backend: 'statevector_simulator (AerProvider)', with following setting:
{'basis_gates': ['ccx', 'cp', 'cswap', 'csx', 'cu', 'cu1', 'cu2', 'cu3', 'cx', 'cy', 'cz', 'delay', 'diagonal', 'h', 'id', 'initialize', 'mcp', 'mcphase', 'mcr', 'mcrx', 'mcry', 'mcrz', 'mcswap', 'mcsx', 'mcu', 'mcu1', 'mcu2', 'mcu3', 'mcx', 'mcy', 'mcz', 'multiplexer', 'p', 'pauli', 'r', 'rx', 'rxx', 'ry', 'ryy', 'rz', 'rzx', 'rzz', 's', 'sdg', 'swap', 'sx', 'sxdg', 't', 'tdg', 'u', 'u1', 'u2', 'u3', 'unitary', 'x', 'y', 'z', 'kraus', 'qerror_loc', 'quantum_channel', 'roerror', 'save_amplitudes', 'save_amplitudes_sq', 'save_density_matrix', 'save_expval', 'save_probs', 'save_probs_ket', 'save_state', 'save_statevector', 'set_statevector'], 'coupling_map': None}
{'initial_layout': None, 'seed_transpiler': None, 'optimization_level': None}
RunConfig(shots=1)
{'timeout': None}
{}
{}
Measurement mitigation: None
INFO:qiskit.algorithms.minimum_eigen_solvers.vqe:
==================== Setting of VQE ============================
Algorithm: VQE
-- max_evals_grouped: 1
-- circuit_sampler: <qiskit.opflow.converters.circuit_sampler.CircuitSampler object at 0x7fdca90d6920>
-- expectation: None
-- include_custom: False
-- ansatz:      ┌───┐┌───────┐
q_0: ┤ X ├┤ Rz(0) ├
     └───┘└───────┘
q_1: ──────────────
     ┌───┐         
q_2: ┤ X ├─────────
     └───┘         
q_3: ──────────────
                   
-- optimizer: <qiskit.algorithms.optimizers.slsqp.SLSQP object at 0x7fdca8c8cc40>
-- initial_point: Random seed
-- gradient: None
-- quantum_instance: 
Qiskit Terra version: 0.24.0
Backend: 'statevector_simulator (AerProvider)', with following setting:
{'basis_gates': ['ccx', 'cp', 'cswap', 'csx', 'cu', 'cu1', 'cu2', 'cu3', 'cx', 'cy', 'cz', 'delay', 'diagonal', 'h', 'id', 'initialize', 'mcp', 'mcphase', 'mcr', 'mcrx', 'mcry', 'mcrz', 'mcswap', 'mcsx', 'mcu', 'mcu1', 'mcu2', 'mcu3', 'mcx', 'mcy', 'mcz', 'multiplexer', 'p', 'pauli', 'r', 'rx', 'rxx', 'ry', 'ryy', 'rz', 'rzx', 'rzz', 's', 'sdg', 'swap', 'sx', 'sxdg', 't', 'tdg', 'u', 'u1', 'u2', 'u3', 'unitary', 'x', 'y', 'z', 'kraus', 'qerror_loc', 'quantum_channel', 'roerror', 'save_amplitudes', 'save_amplitudes_sq', 'save_density_matrix', 'save_expval', 'save_probs', 'save_probs_ket', 'save_state', 'save_statevector', 'set_statevector'], 'coupling_map': None}
{'initial_layout': None, 'seed_transpiler': None, 'optimization_level': None}
RunConfig(shots=1)
{'timeout': None}
{}
{}
Measurement mitigation: None
-- eval_time: None
-- eval_count: 0
-- callback: None
===============================================================
     ┌───┐┌───────┐
q_0: ┤ X ├┤ Rz(0) ├
     └───┘└───────┘
q_1: ──────────────
     ┌───┐         
q_2: ┤ X ├─────────
     └───┘         
q_3: ──────────────
                   ===============================================================
Optimizer: SLSQP
-- method: slsqp
-- bounds_support_level: 2
-- gradient_support_level: 2
-- initial_point_support_level: 3
-- options: {'maxiter': 100, 'disp': False, 'ftol': 1e-06, 'eps': 1.4901161193847656e-08}
-- max_evals_grouped: 1
-- kwargs: {'tol': None}
===============================================================

DEBUG:stevedore._cache:reading /home/meghashree/.cache/python-entrypoints/4f8ea81260f3cda0d9f7b7a57cd71974de00034ec10e0cc5992169d173fdd5d1
DEBUG:stevedore._cache:writing to /home/meghashree/.cache/python-entrypoints/4f8ea81260f3cda0d9f7b7a57cd71974de00034ec10e0cc5992169d173fdd5d1
DEBUG:stevedore.extension:found extension EntryPoint(name='basic', value='qiskit.transpiler.preset_passmanagers.builtin_plugins:BasicSwapPassManager', group='qiskit.transpiler.routing')
DEBUG:stevedore.extension:found extension EntryPoint(name='lookahead', value='qiskit.transpiler.preset_passmanagers.builtin_plugins:LookaheadSwapPassManager', group='qiskit.transpiler.routing')
DEBUG:stevedore.extension:found extension EntryPoint(name='none', value='qiskit.transpiler.preset_passmanagers.builtin_plugins:NoneRoutingPassManager', group='qiskit.transpiler.routing')
DEBUG:stevedore.extension:found extension EntryPoint(name='sabre', value='qiskit.transpiler.preset_passmanagers.builtin_plugins:SabreSwapPassManager', group='qiskit.transpiler.routing')
DEBUG:stevedore.extension:found extension EntryPoint(name='stochastic', value='qiskit.transpiler.preset_passmanagers.builtin_plugins:StochasticSwapPassManager', group='qiskit.transpiler.routing')
DEBUG:stevedore.extension:found extension EntryPoint(name='clifford.ag', value='qiskit.transpiler.passes.synthesis.high_level_synthesis:AGSynthesisClifford', group='qiskit.synthesis')
DEBUG:stevedore.extension:found extension EntryPoint(name='clifford.bm', value='qiskit.transpiler.passes.synthesis.high_level_synthesis:BMSynthesisClifford', group='qiskit.synthesis')
DEBUG:stevedore.extension:found extension EntryPoint(name='clifford.default', value='qiskit.transpiler.passes.synthesis.high_level_synthesis:DefaultSynthesisClifford', group='qiskit.synthesis')
DEBUG:stevedore.extension:found extension EntryPoint(name='clifford.greedy', value='qiskit.transpiler.passes.synthesis.high_level_synthesis:GreedySynthesisClifford', group='qiskit.synthesis')
DEBUG:stevedore.extension:found extension EntryPoint(name='clifford.layers', value='qiskit.transpiler.passes.synthesis.high_level_synthesis:LayerSynthesisClifford', group='qiskit.synthesis')
DEBUG:stevedore.extension:found extension EntryPoint(name='clifford.lnn', value='qiskit.transpiler.passes.synthesis.high_level_synthesis:LayerLnnSynthesisClifford', group='qiskit.synthesis')
DEBUG:stevedore.extension:found extension EntryPoint(name='linear_function.default', value='qiskit.transpiler.passes.synthesis.high_level_synthesis:DefaultSynthesisLinearFunction', group='qiskit.synthesis')
DEBUG:stevedore.extension:found extension EntryPoint(name='linear_function.kms', value='qiskit.transpiler.passes.synthesis.high_level_synthesis:KMSSynthesisLinearFunction', group='qiskit.synthesis')
DEBUG:stevedore.extension:found extension EntryPoint(name='linear_function.pmh', value='qiskit.transpiler.passes.synthesis.high_level_synthesis:PMHSynthesisLinearFunction', group='qiskit.synthesis')
DEBUG:stevedore.extension:found extension EntryPoint(name='permutation.acg', value='qiskit.transpiler.passes.synthesis.high_level_synthesis:ACGSynthesisPermutation', group='qiskit.synthesis')
DEBUG:stevedore.extension:found extension EntryPoint(name='permutation.basic', value='qiskit.transpiler.passes.synthesis.high_level_synthesis:BasicSynthesisPermutation', group='qiskit.synthesis')
DEBUG:stevedore.extension:found extension EntryPoint(name='permutation.default', value='qiskit.transpiler.passes.synthesis.high_level_synthesis:BasicSynthesisPermutation', group='qiskit.synthesis')
DEBUG:stevedore.extension:found extension EntryPoint(name='permutation.kms', value='qiskit.transpiler.passes.synthesis.high_level_synthesis:KMSSynthesisPermutation', group='qiskit.synthesis')
INFO:qiskit.transpiler.runningpassmanager:Pass: ContainsInstruction - 0.03147 (ms)
INFO:qiskit.transpiler.runningpassmanager:Pass: UnitarySynthesis - 0.00668 (ms)
INFO:qiskit.transpiler.runningpassmanager:Pass: HighLevelSynthesis - 0.07176 (ms)
INFO:qiskit.transpiler.runningpassmanager:Pass: UnrollCustomDefinitions - 0.62227 (ms)
INFO:qiskit.transpiler.passes.basis.basis_translator:Begin BasisTranslator from source basis {('x', 1), ('rz', 1)} to target basis {'mcphase', 'ryy', 'save_probs', 'multiplexer', 'u2', 'cz', 'mcp', 'csx', 'save_density_matrix', 'x', 'mcu2', 'set_statevector', 'mcz', 'u3', 'sx', 'barrier', 'p', 'mcy', 'rx', 'tdg', 'cp', 'diagonal', 'unitary', 'cu', 'h', 'roerror', 'cx', 'reset', 'qerror_loc', 'cu3', 'save_probs_ket', 'mcr', 'save_statevector', 'quantum_channel', 'pauli', 'measure', 'r', 'sdg', 'ccx', 'u', 'initialize', 's', 'rzx', 'rxx', 'mcrz', 'sxdg', 'cswap', 'rz', 'save_amplitudes_sq', 'mcrx', 'ry', 'delay', 'snapshot', 'id', 'rzz', 'mcu', 'mcswap', 'save_state', 'save_expval', 'save_amplitudes', 'mcu1', 't', 'mcu3', 'kraus', 'mcry', 'z', 'swap', 'cu1', 'y', 'cy', 'mcsx', 'cu2', 'mcx', 'u1'}.
DEBUG:qiskit.transpiler.passes.basis.basis_translator:Begining basis search from {('x', 1), ('rz', 1)} to {'mcphase', 'ryy', 'save_probs', 'multiplexer', 'u2', 'cz', 'mcp', 'csx', 'save_density_matrix', 'x', 'mcu2', 'set_statevector', 'mcz', 'u3', 'sx', 'barrier', 'p', 'mcy', 'rx', 'tdg', 'cp', 'diagonal', 'unitary', 'cu', 'h', 'roerror', 'cx', 'reset', 'qerror_loc', 'cu3', 'save_probs_ket', 'mcr', 'save_statevector', 'quantum_channel', 'pauli', 'measure', 'r', 'sdg', 'ccx', 'u', 'initialize', 's', 'rzx', 'rxx', 'mcrz', 'sxdg', 'cswap', 'rz', 'save_amplitudes_sq', 'mcrx', 'ry', 'delay', 'snapshot', 'id', 'rzz', 'mcu', 'mcswap', 'save_state', 'save_expval', 'save_amplitudes', 'mcu1', 't', 'mcu3', 'kraus', 'mcry', 'z', 'swap', 'cu1', 'y', 'cy', 'mcsx', 'cu2', 'mcx', 'u1'}.
INFO:qiskit.transpiler.passes.basis.basis_translator:Basis translation path search completed in 0.001s.
INFO:qiskit.transpiler.passes.basis.basis_translator:Basis translation paths composed in 0.001s.
INFO:qiskit.transpiler.passes.basis.basis_translator:Basis translation instructions replaced in 0.000s.
INFO:qiskit.transpiler.runningpassmanager:Pass: BasisTranslator - 7.48944 (ms)
INFO:qiskit.transpiler.runningpassmanager:Pass: RemoveResetInZeroState - 0.04530 (ms)
INFO:qiskit.transpiler.runningpassmanager:Pass: Depth - 0.12231 (ms)
INFO:qiskit.transpiler.runningpassmanager:Pass: FixedPoint - 0.04077 (ms)
INFO:qiskit.transpiler.runningpassmanager:Pass: Size - 0.08464 (ms)
INFO:qiskit.transpiler.runningpassmanager:Pass: FixedPoint - 0.02694 (ms)
INFO:qiskit.transpiler.runningpassmanager:Pass: Optimize1qGatesDecomposition - 0.40770 (ms)
INFO:qiskit.transpiler.runningpassmanager:Pass: CXCancellation - 0.09251 (ms)
INFO:qiskit.transpiler.runningpassmanager:Pass: GatesInBasis - 0.09656 (ms)
INFO:qiskit.transpiler.runningpassmanager:Pass: Depth - 0.07796 (ms)
INFO:qiskit.transpiler.runningpassmanager:Pass: FixedPoint - 0.02980 (ms)
INFO:qiskit.transpiler.runningpassmanager:Pass: Size - 0.07272 (ms)
INFO:qiskit.transpiler.runningpassmanager:Pass: FixedPoint - 0.02789 (ms)
INFO:qiskit.transpiler.runningpassmanager:Pass: ContainsInstruction - 0.08464 (ms)
INFO:qiskit.compiler.transpiler:Total Transpile Time - 660.94923 (ms)
DEBUG:qiskit.utils.quantum_instance:==== Before transpiler ====
DEBUG:qiskit.utils.quantum_instance:Submitting 1 circuits.
============================================================================
0-th circuit: 4 qubits, 0 classical bits and 3 operations with depth 2
op_counts: OrderedDict([('x', 2), ('rz', 1)])
============================================================================

DEBUG:qiskit.utils.quantum_instance:====  After transpiler ====
DEBUG:qiskit.utils.quantum_instance:Submitting 1 circuits.
============================================================================
0-th circuit: 4 qubits, 0 classical bits and 3 operations with depth 2
op_counts: OrderedDict([('x', 2), ('rz', 1)])
============================================================================

DEBUG:qiskit.opflow.converters.circuit_sampler:Parameter conversion 0.82302 (ms)
INFO:qiskit.algorithms.minimum_eigen_solvers.vqe:Energy evaluation returned [-1.83696799] - 677.85859 (ms), eval count: 1
DEBUG:qiskit.opflow.converters.circuit_sampler:Parameter conversion 0.26608 (ms)
INFO:qiskit.algorithms.minimum_eigen_solvers.vqe:Energy evaluation returned [-1.83696799] - 4.73309 (ms), eval count: 2
DEBUG:stevedore.extension:found extension EntryPoint(name='basic', value='qiskit.transpiler.preset_passmanagers.builtin_plugins:BasicSwapPassManager', group='qiskit.transpiler.routing')
DEBUG:stevedore.extension:found extension EntryPoint(name='lookahead', value='qiskit.transpiler.preset_passmanagers.builtin_plugins:LookaheadSwapPassManager', group='qiskit.transpiler.routing')
DEBUG:stevedore.extension:found extension EntryPoint(name='none', value='qiskit.transpiler.preset_passmanagers.builtin_plugins:NoneRoutingPassManager', group='qiskit.transpiler.routing')
DEBUG:stevedore.extension:found extension EntryPoint(name='sabre', value='qiskit.transpiler.preset_passmanagers.builtin_plugins:SabreSwapPassManager', group='qiskit.transpiler.routing')
DEBUG:stevedore.extension:found extension EntryPoint(name='stochastic', value='qiskit.transpiler.preset_passmanagers.builtin_plugins:StochasticSwapPassManager', group='qiskit.transpiler.routing')
DEBUG:stevedore.extension:found extension EntryPoint(name='clifford.ag', value='qiskit.transpiler.passes.synthesis.high_level_synthesis:AGSynthesisClifford', group='qiskit.synthesis')
DEBUG:stevedore.extension:found extension EntryPoint(name='clifford.bm', value='qiskit.transpiler.passes.synthesis.high_level_synthesis:BMSynthesisClifford', group='qiskit.synthesis')
DEBUG:stevedore.extension:found extension EntryPoint(name='clifford.default', value='qiskit.transpiler.passes.synthesis.high_level_synthesis:DefaultSynthesisClifford', group='qiskit.synthesis')
DEBUG:stevedore.extension:found extension EntryPoint(name='clifford.greedy', value='qiskit.transpiler.passes.synthesis.high_level_synthesis:GreedySynthesisClifford', group='qiskit.synthesis')
DEBUG:stevedore.extension:found extension EntryPoint(name='clifford.layers', value='qiskit.transpiler.passes.synthesis.high_level_synthesis:LayerSynthesisClifford', group='qiskit.synthesis')
DEBUG:stevedore.extension:found extension EntryPoint(name='clifford.lnn', value='qiskit.transpiler.passes.synthesis.high_level_synthesis:LayerLnnSynthesisClifford', group='qiskit.synthesis')
[...]
INFO:qiskit.compiler.assembler:Total Assembly Time - 0.19622 (ms)
INFO:qiskit.compiler.assembler:Total Assembly Time - 0.22292 (ms)
INFO:qiskit.compiler.assembler:Total Assembly Time - 0.16141 (ms)
INFO:qiskit.compiler.assembler:Total Assembly Time - 0.21267 (ms)
INFO:qiskit.compiler.assembler:Total Assembly Time - 0.17667 (ms)
INFO:qiskit.compiler.assembler:Total Assembly Time - 0.20146 (ms)
INFO:qiskit.compiler.assembler:Total Assembly Time - 0.38338 (ms)
INFO:qiskit.compiler.assembler:Total Assembly Time - 0.30661 (ms)
INFO:qiskit.compiler.assembler:Total Assembly Time - 0.23627 (ms)
INFO:qiskit.compiler.assembler:Total Assembly Time - 0.24343 (ms)
INFO:qiskit.compiler.assembler:Total Assembly Time - 0.19550 (ms)
INFO:qiskit.utils.quantum_instance:Overwriting the number of shots in the quantum instance with the settings from the backend.
DEBUG:qiskit.utils.backend_utils:IBMQFactory/AccountProvider not loaded: 'No module named 'qiskit.providers.ibmq''
INFO:qiskit.utils.quantum_instance:
Qiskit Terra version: 0.24.0
Backend: 'statevector_simulator (AerProvider)', with following setting:
{'basis_gates': ['ccx', 'cp', 'cswap', 'csx', 'cu', 'cu1', 'cu2', 'cu3', 'cx', 'cy', 'cz', 'delay', 'diagonal', 'h', 'id', 'initialize', 'mcp', 'mcphase', 'mcr', 'mcrx', 'mcry', 'mcrz', 'mcswap', 'mcsx', 'mcu', 'mcu1', 'mcu2', 'mcu3', 'mcx', 'mcy', 'mcz', 'multiplexer', 'p', 'pauli', 'r', 'rx', 'rxx', 'ry', 'ryy', 'rz', 'rzx', 'rzz', 's', 'sdg', 'swap', 'sx', 'sxdg', 't', 'tdg', 'u', 'u1', 'u2', 'u3', 'unitary', 'x', 'y', 'z', 'kraus', 'qerror_loc', 'quantum_channel', 'roerror', 'save_amplitudes', 'save_amplitudes_sq', 'save_density_matrix', 'save_expval', 'save_probs', 'save_probs_ket', 'save_state', 'save_statevector', 'set_statevector'], 'coupling_map': None}
{'initial_layout': None, 'seed_transpiler': None, 'optimization_level': None}
RunConfig(shots=1)
{'timeout': None}
{}
{}
Measurement mitigation: None
INFO:qiskit.algorithms.minimum_eigen_solvers.vqe:
==================== Setting of VQE ============================
Algorithm: VQE
-- max_evals_grouped: 1
-- circuit_sampler: <qiskit.opflow.converters.circuit_sampler.CircuitSampler object at 0x7f16914feda0>
-- expectation: None
-- include_custom: False
-- ansatz:      ┌───┐┌───────┐
q_0: ┤ X ├┤ Rz(0) ├
     └───┘└───────┘
q_1: ──────────────
     ┌───┐         
q_2: ┤ X ├─────────
     └───┘         
q_3: ──────────────
                   
-- optimizer: <qiskit.algorithms.optimizers.slsqp.SLSQP object at 0x7f168c125b70>
-- initial_point: Random seed
-- gradient: None
-- quantum_instance: 
Qiskit Terra version: 0.24.0
Backend: 'statevector_simulator (AerProvider)', with following setting:
{'basis_gates': ['ccx', 'cp', 'cswap', 'csx', 'cu', 'cu1', 'cu2', 'cu3', 'cx', 'cy', 'cz', 'delay', 'diagonal', 'h', 'id', 'initialize', 'mcp', 'mcphase', 'mcr', 'mcrx', 'mcry', 'mcrz', 'mcswap', 'mcsx', 'mcu', 'mcu1', 'mcu2', 'mcu3', 'mcx', 'mcy', 'mcz', 'multiplexer', 'p', 'pauli', 'r', 'rx', 'rxx', 'ry', 'ryy', 'rz', 'rzx', 'rzz', 's', 'sdg', 'swap', 'sx', 'sxdg', 't', 'tdg', 'u', 'u1', 'u2', 'u3', 'unitary', 'x', 'y', 'z', 'kraus', 'qerror_loc', 'quantum_channel', 'roerror', 'save_amplitudes', 'save_amplitudes_sq', 'save_density_matrix', 'save_expval', 'save_probs', 'save_probs_ket', 'save_state', 'save_statevector', 'set_statevector'], 'coupling_map': None}
{'initial_layout': None, 'seed_transpiler': None, 'optimization_level': None}
RunConfig(shots=1)
{'timeout': None}
{}
{}
Measurement mitigation: None
-- eval_time: None
-- eval_count: 0
-- callback: None
===============================================================
     ┌───┐┌───────┐
q_0: ┤ X ├┤ Rz(0) ├
     └───┘└───────┘
q_1: ──────────────
     ┌───┐         
q_2: ┤ X ├─────────
     └───┘         
q_3: ──────────────
                   ===============================================================
Optimizer: SLSQP
-- method: slsqp
-- bounds_support_level: 2
-- gradient_support_level: 2
-- initial_point_support_level: 3
-- options: {'maxiter': 100, 'disp': False, 'ftol': 1e-06, 'eps': 1.4901161193847656e-08}
-- max_evals_grouped: 1
-- kwargs: {'tol': None}
===============================================================

DEBUG:stevedore._cache:reading /home/meghashree/.cache/python-entrypoints/84fb3e3e1e2da05e5839681a48cd701881d05a62db0a872e6b0b546ad630e75f
DEBUG:stevedore._cache:writing to /home/meghashree/.cache/python-entrypoints/84fb3e3e1e2da05e5839681a48cd701881d05a62db0a872e6b0b546ad630e75f
DEBUG:stevedore.extension:found extension EntryPoint(name='basic', value='qiskit.transpiler.preset_passmanagers.builtin_plugins:BasicSwapPassManager', group='qiskit.transpiler.routing')
DEBUG:stevedore.extension:found extension EntryPoint(name='lookahead', value='qiskit.transpiler.preset_passmanagers.builtin_plugins:LookaheadSwapPassManager', group='qiskit.transpiler.routing')
DEBUG:stevedore.extension:found extension EntryPoint(name='none', value='qiskit.transpiler.preset_passmanagers.builtin_plugins:NoneRoutingPassManager', group='qiskit.transpiler.routing')
DEBUG:stevedore.extension:found extension EntryPoint(name='sabre', value='qiskit.transpiler.preset_passmanagers.builtin_plugins:SabreSwapPassManager', group='qiskit.transpiler.routing')
DEBUG:stevedore.extension:found extension EntryPoint(name='stochastic', value='qiskit.transpiler.preset_passmanagers.builtin_plugins:StochasticSwapPassManager', group='qiskit.transpiler.routing')
DEBUG:stevedore.extension:found extension EntryPoint(name='clifford.ag', value='qiskit.transpiler.passes.synthesis.high_level_synthesis:AGSynthesisClifford', group='qiskit.synthesis')
DEBUG:stevedore.extension:found extension EntryPoint(name='clifford.bm', value='qiskit.transpiler.passes.synthesis.high_level_synthesis:BMSynthesisClifford', group='qiskit.synthesis')
DEBUG:stevedore.extension:found extension EntryPoint(name='clifford.default', value='qiskit.transpiler.passes.synthesis.high_level_synthesis:DefaultSynthesisClifford', group='qiskit.synthesis')
DEBUG:stevedore.extension:found extension EntryPoint(name='clifford.greedy', value='qiskit.transpiler.passes.synthesis.high_level_synthesis:GreedySynthesisClifford', group='qiskit.synthesis')
DEBUG:stevedore.extension:found extension EntryPoint(name='clifford.layers', value='qiskit.transpiler.passes.synthesis.high_level_synthesis:LayerSynthesisClifford', group='qiskit.synthesis')
DEBUG:stevedore.extension:found extension EntryPoint(name='clifford.lnn', value='qiskit.transpiler.passes.synthesis.high_level_synthesis:LayerLnnSynthesisClifford', group='qiskit.synthesis')
DEBUG:stevedore.extension:found extension EntryPoint(name='linear_function.default', value='qiskit.transpiler.passes.synthesis.high_level_synthesis:DefaultSynthesisLinearFunction', group='qiskit.synthesis')
DEBUG:stevedore.extension:found extension EntryPoint(name='linear_function.kms', value='qiskit.transpiler.passes.synthesis.high_level_synthesis:KMSSynthesisLinearFunction', group='qiskit.synthesis')
DEBUG:stevedore.extension:found extension EntryPoint(name='linear_function.pmh', value='qiskit.transpiler.passes.synthesis.high_level_synthesis:PMHSynthesisLinearFunction', group='qiskit.synthesis')
DEBUG:stevedore.extension:found extension EntryPoint(name='permutation.acg', value='qiskit.transpiler.passes.synthesis.high_level_synthesis:ACGSynthesisPermutation', group='qiskit.synthesis')
DEBUG:stevedore.extension:found extension EntryPoint(name='permutation.basic', value='qiskit.transpiler.passes.synthesis.high_level_synthesis:BasicSynthesisPermutation', group='qiskit.synthesis')
DEBUG:stevedore.extension:found extension EntryPoint(name='permutation.default', value='qiskit.transpiler.passes.synthesis.high_level_synthesis:BasicSynthesisPermutation', group='qiskit.synthesis')
DEBUG:stevedore.extension:found extension EntryPoint(name='permutation.kms', value='qiskit.transpiler.passes.synthesis.high_level_synthesis:KMSSynthesisPermutation', group='qiskit.synthesis')
INFO:qiskit.transpiler.runningpassmanager:Pass: ContainsInstruction - 0.02432 (ms)
INFO:qiskit.transpiler.runningpassmanager:Pass: UnitarySynthesis - 0.01454 (ms)
INFO:qiskit.transpiler.runningpassmanager:Pass: HighLevelSynthesis - 0.09918 (ms)
INFO:qiskit.transpiler.runningpassmanager:Pass: UnrollCustomDefinitions - 0.34118 (ms)
INFO:qiskit.transpiler.passes.basis.basis_translator:Begin BasisTranslator from source basis {('x', 1), ('rz', 1)} to target basis {'mcu3', 'u', 'save_statevector', 'z', 'cu', 'u2', 'mcy', 'initialize', 'ry', 'mcry', 'cu1', 'mcswap', 'mcrx', 'snapshot', 'cswap', 'swap', 'mcu1', 'mcu', 'mcx', 'sxdg', 'cp', 'mcphase', 'rzx', 'measure', 'pauli', 'barrier', 'unitary', 'r', 'save_density_matrix', 'ccx', 'mcu2', 'u3', 'save_state', 'set_statevector', 'cy', 'mcz', 'p', 'csx', 'id', 'rz', 'delay', 'tdg', 's', 'cu2', 'y', 'mcrz', 'cu3', 'save_probs_ket', 'kraus', 'rxx', 'quantum_channel', 'save_probs', 'mcr', 'rzz', 'reset', 'diagonal', 'rx', 'x', 'h', 'multiplexer', 'qerror_loc', 'save_amplitudes', 'mcp', 'save_amplitudes_sq', 'mcsx', 'roerror', 'sx', 'cx', 'u1', 'ryy', 'cz', 't', 'sdg', 'save_expval'}.
DEBUG:qiskit.transpiler.passes.basis.basis_translator:Begining basis search from {('x', 1), ('rz', 1)} to {'mcu3', 'u', 'save_statevector', 'z', 'cu', 'u2', 'mcy', 'initialize', 'ry', 'mcry', 'cu1', 'mcswap', 'mcrx', 'snapshot', 'cswap', 'swap', 'mcu1', 'mcu', 'mcx', 'sxdg', 'cp', 'mcphase', 'rzx', 'measure', 'pauli', 'barrier', 'unitary', 'r', 'save_density_matrix', 'ccx', 'mcu2', 'u3', 'save_state', 'set_statevector', 'cy', 'mcz', 'p', 'csx', 'id', 'rz', 'delay', 'tdg', 's', 'cu2', 'y', 'mcrz', 'cu3', 'save_probs_ket', 'kraus', 'rxx', 'quantum_channel', 'save_probs', 'mcr', 'rzz', 'reset', 'diagonal', 'rx', 'x', 'h', 'multiplexer', 'qerror_loc', 'save_amplitudes', 'mcp', 'save_amplitudes_sq', 'mcsx', 'roerror', 'sx', 'cx', 'u1', 'ryy', 'cz', 't', 'sdg', 'save_expval'}.
INFO:qiskit.transpiler.passes.basis.basis_translator:Basis translation path search completed in 0.002s.
INFO:qiskit.transpiler.passes.basis.basis_translator:Basis translation paths composed in 0.001s.
INFO:qiskit.transpiler.passes.basis.basis_translator:Basis translation instructions replaced in 0.000s.
INFO:qiskit.transpiler.runningpassmanager:Pass: BasisTranslator - 8.07261 (ms)
INFO:qiskit.transpiler.runningpassmanager:Pass: RemoveResetInZeroState - 0.03433 (ms)
INFO:qiskit.transpiler.runningpassmanager:Pass: Depth - 7.01189 (ms)
INFO:qiskit.transpiler.runningpassmanager:Pass: FixedPoint - 0.09060 (ms)
INFO:qiskit.transpiler.runningpassmanager:Pass: Size - 0.20576 (ms)
INFO:qiskit.transpiler.runningpassmanager:Pass: FixedPoint - 0.07081 (ms)
INFO:qiskit.transpiler.runningpassmanager:Pass: Optimize1qGatesDecomposition - 5.37372 (ms)
INFO:qiskit.transpiler.runningpassmanager:Pass: CXCancellation - 0.10896 (ms)
INFO:qiskit.transpiler.runningpassmanager:Pass: GatesInBasis - 0.15140 (ms)
INFO:qiskit.transpiler.runningpassmanager:Pass: Depth - 0.11349 (ms)
INFO:qiskit.transpiler.runningpassmanager:Pass: FixedPoint - 0.04888 (ms)
INFO:qiskit.transpiler.runningpassmanager:Pass: Size - 0.09871 (ms)
INFO:qiskit.transpiler.runningpassmanager:Pass: FixedPoint - 0.02623 (ms)
INFO:qiskit.transpiler.runningpassmanager:Pass: ContainsInstruction - 0.08225 (ms)
INFO:qiskit.compiler.transpiler:Total Transpile Time - 897.21012 (ms)
DEBUG:qiskit.utils.quantum_instance:==== Before transpiler ====
DEBUG:qiskit.utils.quantum_instance:Submitting 1 circuits.
============================================================================
0-th circuit: 4 qubits, 0 classical bits and 3 operations with depth 2
op_counts: OrderedDict([('x', 2), ('rz', 1)])
============================================================================

DEBUG:qiskit.utils.quantum_instance:====  After transpiler ====
DEBUG:qiskit.utils.quantum_instance:Submitting 1 circuits.
============================================================================
0-th circuit: 4 qubits, 0 classical bits and 3 operations with depth 2
op_counts: OrderedDict([('x', 2), ('rz', 1)])
============================================================================

DEBUG:qiskit.opflow.converters.circuit_sampler:Parameter conversion 3.50142 (ms)
INFO:qiskit.algorithms.minimum_eigen_solvers.vqe:Energy evaluation returned [-1.83696799] - 938.32302 (ms), eval count: 1
DEBUG:qiskit.opflow.converters.circuit_sampler:Parameter conversion 0.21362 (ms)
INFO:qiskit.algorithms.minimum_eigen_solvers.vqe:Energy evaluation returned [-1.83696799] - 4.98414 (ms), eval count: 2
DEBUG:stevedore.extension:found extension EntryPoint(name='basic', value='qiskit.transpiler.preset_passmanagers.builtin_plugins:BasicSwapPassManager', group='qiskit.transpiler.routing')
DEBUG:stevedore.extension:found extension EntryPoint(name='lookahead', value='qiskit.transpiler.preset_passmanagers.builtin_plugins:LookaheadSwapPassManager', group='qiskit.transpiler.routing')
DEBUG:stevedore.extension:found extension EntryPoint(name='none', value='qiskit.transpiler.preset_passmanagers.builtin_plugins:NoneRoutingPassManager', group='qiskit.transpiler.routing')
DEBUG:stevedore.extension:found extension EntryPoint(name='sabre', value='qiskit.transpiler.preset_passmanagers.builtin_plugins:SabreSwapPassManager', group='qiskit.transpiler.routing')
DEBUG:stevedore.extension:found extension EntryPoint(name='stochastic', value='qiskit.transpiler.preset_passmanagers.builtin_plugins:StochasticSwapPassManager', group='qiskit.transpiler.routing')
DEBUG:stevedore.extension:found extension EntryPoint(name='clifford.ag', value='qiskit.transpiler.passes.synthesis.high_level_synthesis:AGSynthesisClifford', group='qiskit.synthesis')
DEBUG:stevedore.extension:found extension EntryPoint(name='clifford.bm', value='qiskit.transpiler.passes.synthesis.high_level_synthesis:BMSynthesisClifford', group='qiskit.synthesis')
DEBUG:stevedore.extension:found extension EntryPoint(name='clifford.default', value='qiskit.transpiler.passes.synthesis.high_level_synthesis:DefaultSynthesisClifford', group='qiskit.synthesis')
DEBUG:stevedore.extension:found extension EntryPoint(name='clifford.greedy', value='qiskit.transpiler.passes.synthesis.high_level_synthesis:GreedySynthesisClifford', group='qiskit.synthesis')
DEBUG:stevedore.extension:found extension EntryPoint(name='clifford.layers', value='qiskit.transpiler.passes.synthesis.high_level_synthesis:LayerSynthesisClifford', group='qiskit.synthesis')
DEBUG:stevedore.extension:found extension EntryPoint(name='clifford.lnn', value='qiskit.transpiler.passes.synthesis.high_level_synthesis:LayerLnnSynthesisClifford', group='qiskit.synthesis')
DEBUG:stevedore.extension:found extension EntryPoint(name='linear_function.default', value='qiskit.transpiler.passes.synthesis.high_level_synthesis:DefaultSynthesisLinearFunction', group='qiskit.synthesis')
DEBUG:stevedore.extension:found extension EntryPoint(name='linear_function.kms', value='qiskit.transpiler.passes.synthesis.high_level_synthesis:KMSSynthesisLinearFunction', group='qiskit.synthesis')
DEBUG:stevedore.extension:found extension EntryPoint(name='linear_function.pmh', value='qiskit.transpiler.passes.synthesis.high_level_synthesis:PMHSynthesisLinearFunction', group='qiskit.synthesis')
DEBUG:stevedore.extension:found extension EntryPoint(name='permutation.acg', value='qiskit.transpiler.passes.synthesis.high_level_synthesis:ACGSynthesisPermutation', group='qiskit.synthesis')
DEBUG:stevedore.extension:found extension EntryPoint(name='permutation.basic', value='qiskit.transpiler.passes.synthesis.high_level_synthesis:BasicSynthesisPermutation', group='qiskit.synthesis')
DEBUG:stevedore.extension:found extension EntryPoint(name='permutation.default', value='qiskit.transpiler.passes.synthesis.high_level_synthesis:BasicSynthesisPermutation', group='qiskit.synthesis')
DEBUG:stevedore.extension:found extension EntryPoint(name='permutation.kms', value='qiskit.transpiler.passes.synthesis.high_level_synthesis:KMSSynthesisPermutation', group='qiskit.synthesis')
INFO:qiskit.transpiler.runningpassmanager:Pass: ContainsInstruction - 0.02694 (ms)
INFO:qiskit.transpiler.runningpassmanager:Pass: UnitarySynthesis - 0.00668 (ms)
INFO:qiskit.transpiler.runningpassmanager:Pass: HighLevelSynthesis - 0.07987 (ms)
INFO:qiskit.transpiler.runningpassmanager:Pass: UnrollCustomDefinitions - 0.13375 (ms)
INFO:qiskit.transpiler.passes.basis.basis_translator:Begin BasisTranslator from source basis {('x', 1), ('rz', 1)} to target basis {'mcu3', 'u', 'save_statevector', 'z', 'cu', 'u2', 'mcy', 'initialize', 'ry', 'mcry', 'cu1', 'mcswap', 'mcrx', 'snapshot', 'cswap', 'swap', 'mcu1', 'mcu', 'mcx', 'sxdg', 'cp', 'mcphase', 'rzx', 'measure', 'pauli', 'barrier', 'unitary', 'r', 'save_density_matrix', 'ccx', 'mcu2', 'u3', 'save_state', 'set_statevector', 'cy', 'mcz', 'p', 'csx', 'id', 'rz', 'delay', 'tdg', 's', 'cu2', 'y', 'mcrz', 'cu3', 'save_probs_ket', 'kraus', 'rxx', 'quantum_channel', 'save_probs', 'mcr', 'rzz', 'reset', 'diagonal', 'rx', 'x', 'h', 'multiplexer', 'qerror_loc', 'save_amplitudes', 'mcp', 'save_amplitudes_sq', 'mcsx', 'roerror', 'sx', 'cx', 'u1', 'ryy', 'cz', 't', 'sdg', 'save_expval'}.
DEBUG:qiskit.transpiler.passes.basis.basis_translator:Begining basis search from {('x', 1), ('rz', 1)} to {'mcu3', 'u', 'save_statevector', 'z', 'cu', 'u2', 'mcy', 'initialize', 'ry', 'mcry', 'cu1', 'mcswap', 'mcrx', 'snapshot', 'cswap', 'swap', 'mcu1', 'mcu', 'mcx', 'sxdg', 'cp', 'mcphase', 'rzx', 'measure', 'pauli', 'barrier', 'unitary', 'r', 'save_density_matrix', 'ccx', 'mcu2', 'u3', 'save_state', 'set_statevector', 'cy', 'mcz', 'p', 'csx', 'id', 'rz', 'delay', 'tdg', 's', 'cu2', 'y', 'mcrz', 'cu3', 'save_probs_ket', 'kraus', 'rxx', 'quantum_channel', 'save_probs', 'mcr', 'rzz', 'reset', 'diagonal', 'rx', 'x', 'h', 'multiplexer', 'qerror_loc', 'save_amplitudes', 'mcp', 'save_amplitudes_sq', 'mcsx', 'roerror', 'sx', 'cx', 'u1', 'ryy', 'cz', 't', 'sdg', 'save_expval'}.
INFO:qiskit.transpiler.passes.basis.basis_translator:Basis translation path search completed in 0.002s.
INFO:qiskit.transpiler.passes.basis.basis_translator:Basis translation paths composed in 0.001s.
INFO:qiskit.transpiler.passes.basis.basis_translator:Basis translation instructions replaced in 0.000s.
INFO:qiskit.transpiler.runningpassmanager:Pass: BasisTranslator - 10.15830 (ms)
INFO:qiskit.transpiler.runningpassmanager:Pass: RemoveResetInZeroState - 0.03362 (ms)
INFO:qiskit.transpiler.runningpassmanager:Pass: Depth - 0.10633 (ms)
INFO:qiskit.transpiler.runningpassmanager:Pass: FixedPoint - 0.04458 (ms)
INFO:qiskit.transpiler.runningpassmanager:Pass: Size - 0.10467 (ms)
INFO:qiskit.transpiler.runningpassmanager:Pass: FixedPoint - 0.03433 (ms)
INFO:qiskit.transpiler.runningpassmanager:Pass: Optimize1qGatesDecomposition - 11.80720 (ms)
INFO:qiskit.transpiler.runningpassmanager:Pass: CXCancellation - 0.23174 (ms)
INFO:qiskit.transpiler.runningpassmanager:Pass: GatesInBasis - 0.18406 (ms)
INFO:qiskit.transpiler.runningpassmanager:Pass: Depth - 0.52023 (ms)
INFO:qiskit.transpiler.runningpassmanager:Pass: FixedPoint - 0.05722 (ms)
INFO:qiskit.transpiler.runningpassmanager:Pass: Size - 0.10800 (ms)
INFO:qiskit.transpiler.runningpassmanager:Pass: FixedPoint - 0.03219 (ms)
INFO:qiskit.transpiler.runningpassmanager:Pass: Optimize1qGatesDecomposition - 2.12526 (ms)
INFO:qiskit.transpiler.runningpassmanager:Pass: CXCancellation - 0.09871 (ms)
INFO:qiskit.transpiler.runningpassmanager:Pass: GatesInBasis - 0.10991 (ms)
INFO:qiskit.transpiler.runningpassmanager:Pass: Depth - 0.09847 (ms)
INFO:qiskit.transpiler.runningpassmanager:Pass: FixedPoint - 0.02694 (ms)
INFO:qiskit.transpiler.runningpassmanager:Pass: Size - 0.06080 (ms)
INFO:qiskit.transpiler.runningpassmanager:Pass: FixedPoint - 0.02193 (ms)
INFO:qiskit.transpiler.runningpassmanager:Pass: ContainsInstruction - 0.09513 (ms)
INFO:qiskit.compiler.transpiler:Total Transpile Time - 107.63049 (ms)
INFO:qiskit.algorithms.minimum_eigen_solvers.vqe:Optimization complete in 0.9545471668243408 seconds.
Found opt_params [5.283778] in 2 evals
